% Model:              capacitor_fringing_fields - sc-2-qw.mph
% Version:            COMSOL 5.1.0.136
% Date:               Dec 16 2018, 23:13
% Dimension:          3
% Nodes:              14185
% Expressions:        1
% Description:        Surface charge density
% Length unit:        nm
% x             y              z              es.nD (C/m^2)
-60.000         0.0000         40.000         0.0000
-59.959         2.2140         40.000         0.0000
-59.959         -2.2140        40.000         0.0000
-59.837         4.4234         40.000         0.0000
-59.837         -4.4236        40.000         0.0000
-59.633         6.6284         40.000         0.0000
-59.633         -6.6286        40.000         0.0000
-59.342         8.8585         40.000         0.0000
-59.342         -8.8589        40.000         0.0000
-58.969         11.075         40.000         0.0000
-58.969         -11.075        40.000         0.0000
-58.513         13.277         40.000         0.0000
-58.512         -13.277        40.000         0.0000
-58.061         -0.96638       40.000         0.0000
-58.004         1.0527         40.000         0.0000
-57.979         -3.1782        40.000         0.0000
-57.974         15.461         40.000         0.0000
-57.974         -15.462        40.000         0.0000
-57.923         3.2644         40.000         0.0000
-57.816         -5.3855        40.000         0.0000
-57.759         5.4716         40.000         0.0000
-57.604         7.5056         40.000         0.0000
-57.559         -7.3990        40.000         0.0000
-57.354         17.622         40.000         0.0000
-57.354         -17.622        40.000         0.0000
-57.272         9.7288         40.000         0.0000
-57.227         -9.6223        40.000         0.0000
-56.857         11.938         40.000         0.0000
-56.812         -11.832        40.000         0.0000
-56.653         19.759         40.000         0.0000
-56.653         -19.760        40.000         0.0000
-56.460         -13.847        40.000         0.0000
-56.319         13.909         40.000         0.0000
-56.121         -1.9328        40.000         0.0000
-56.065         0.086342       40.000         0.0000
-56.009         2.1054         40.000         0.0000
-55.999         -4.1423        40.000         0.0000
-55.886         4.3149         40.000         0.0000
-55.881         -16.019        40.000         0.0000
-55.873         21.869         40.000         0.0000
-55.872         -21.870        40.000         0.0000
-55.742         -6.1558        40.000         0.0000
-55.740         16.081         40.000         0.0000
-55.731         6.3488         40.000         0.0000
-55.576         8.3828         40.000         0.0000
-55.485         -8.1694        40.000         0.0000
-55.221         -18.168        40.000         0.0000
-55.202         10.599         40.000         0.0000
-55.111         -10.386        40.000         0.0000
-55.079         18.230         40.000         0.0000
-55.014         23.946         40.000         0.0000
-55.014         -23.947        40.000         0.0000
-54.760         -12.401        40.000         0.0000
-54.664         12.570         40.000         0.0000
-54.461         20.229         40.000         0.0000
-54.447         -20.003        40.000         0.0000
-54.408         -14.416        40.000         0.0000
-54.182         -2.8991        40.000         0.0000
-54.126         14.541         40.000         0.0000
-54.125         -0.88004       40.000         0.0000
-54.078         25.992         40.000         0.0000
-54.078         -25.993        40.000         0.0000
-54.069         1.1391         40.000         0.0000
-54.013         3.1582         40.000         0.0000
-53.925         -4.9127        40.000         0.0000
-53.858         5.1921         40.000         0.0000
-53.788         -16.576        40.000         0.0000
-53.702         7.2261         40.000         0.0000
-53.668         -6.9262        40.000         0.0000
-53.641         22.323         40.000         0.0000
-53.628         -22.097        40.000         0.0000
-53.547         9.2600         40.000         0.0000
-53.506         16.701         40.000         0.0000
-53.411         -8.9397        40.000         0.0000
-53.066         28.000         40.000         0.0000
-53.065         -28.001        40.000         0.0000
-53.059         -10.955        40.000         0.0000
-53.015         -18.411        40.000         0.0000
-53.009         11.231         40.000         0.0000
-52.887         18.700         40.000         0.0000
-52.793         -1.8795        40.000         0.0000
-52.744         24.384         40.000         0.0000
-52.736         0.13961        40.000         0.0000
-52.731         -24.158        40.000         0.0000
-52.707         -12.970        40.000         0.0000
-52.680         2.1587         40.000         0.0000
-52.470         13.202         40.000         0.0000
-52.356         -14.985        40.000         0.0000
-52.268         20.699         40.000         0.0000
-52.242         -20.247        40.000         0.0000
-52.176         -3.6979        40.000         0.0000
-52.056         3.9069         40.000         0.0000
-51.980         29.968         40.000         0.0000
-51.979         -29.969        40.000         0.0000
-51.956         -26.053        40.000         0.0000
-51.932         15.172         40.000         0.0000
-51.919         -5.7114        40.000         0.0000
-51.916         9.9573         40.000         0.0000
-51.916         -9.6096        40.000         0.0000
-51.900         5.9408         40.000         0.0000
-51.745         7.9748         40.000         0.0000
-51.728         26.148         40.000         0.0000
-51.662         -7.7249        40.000         0.0000
-51.583         -16.820        40.000         0.0000
-51.565         -11.625        40.000         0.0000
-51.410         22.776         40.000         0.0000
-51.404         -0.85985       40.000         0.0000
-51.383         -22.324        40.000         0.0000
-51.378         11.928         40.000         0.0000
-51.347         1.1593         40.000         0.0000
-51.313         17.171         40.000         0.0000
-51.213         -13.640        40.000         0.0000
-50.907         -28.041        40.000         0.0000
-50.839         13.899         40.000         0.0000
-50.820         31.896         40.000         0.0000
-50.819         -31.897        40.000         0.0000
-50.810         -18.655        40.000         0.0000
-50.787         -2.6782        40.000         0.0000
-50.723         2.9074         40.000         0.0000
-50.695         19.170         40.000         0.0000
-50.679         28.136         40.000         0.0000
-50.609         -24.218        40.000         0.0000
-50.422         -10.279        40.000         0.0000
-50.394         24.540         40.000         0.0000
-50.285         10.655         40.000         0.0000
-50.171         -4.4966        40.000         0.0000
-50.168         -8.3947        40.000         0.0000
-50.145         -15.276        40.000         0.0000
-50.114         8.6721         40.000         0.0000
-50.098         4.6556         40.000         0.0000
-50.076         21.169         40.000         0.0000
-50.070         -12.294        40.000         0.0000
-50.036         -20.490        40.000         0.0000
-50.015         0.15979        40.000         0.0000
-49.943         6.6895         40.000         0.0000
-49.914         -6.5101        40.000         0.0000
-49.850         15.450         40.000         0.0000
-49.835         -26.113        40.000         0.0000
-49.784         -29.989        40.000         0.0000
-49.747         12.625         40.000         0.0000
-49.589         33.778         40.000         0.0000
-49.588         -33.779        40.000         0.0000
-49.556         30.084         40.000         0.0000
-49.398         -1.6586        40.000         0.0000
-49.390         1.9080         40.000         0.0000
-49.377         26.304         40.000         0.0000
-49.372         -17.111        40.000         0.0000
-49.262         -22.384        40.000         0.0000
-49.231         17.449         40.000         0.0000
-49.060         22.932         40.000         0.0000
-49.002         -13.931        40.000         0.0000
-48.927         -10.949        40.000         0.0000
-48.782         -3.4769        40.000         0.0000
-48.766         3.6561         40.000         0.0000
-48.758         14.177         40.000         0.0000
-48.749         -28.081        40.000         0.0000
-48.673         -9.0646        40.000         0.0000
-48.654         11.352         40.000         0.0000
-48.631         -31.637        40.000         0.0000
-48.613         19.448         40.000         0.0000
-48.599         -18.946        40.000         0.0000
-48.587         31.787         40.000         0.0000
-48.488         -24.279        40.000         0.0000
-48.483         9.3694         40.000         0.0000
-48.431         -20.809        40.000         0.0000
-48.419         -7.1799        40.000         0.0000
-48.312         7.3868         40.000         0.0000
-48.291         28.272         40.000         0.0000
-48.288         35.612         40.000         0.0000
-48.288         -35.613        40.000         0.0000
-48.282         21.474         40.000         0.0000
-48.165         -5.2953        40.000         0.0000
-48.141         5.4043         40.000         0.0000
-48.043         24.696         40.000         0.0000
-47.935         -15.568        40.000         0.0000
-47.859         -12.586        40.000         0.0000
-47.768         15.728         40.000         0.0000
-47.714         -26.173        40.000         0.0000
-47.665         12.903         40.000         0.0000
-47.657         -22.704        40.000         0.0000
-47.596         -29.729        40.000         0.0000
-47.540         0.16187        40.000         0.0000
-47.366         -33.495        40.000         0.0000
-47.323         29.975         40.000         0.0000
-47.322         33.646         40.000         0.0000
-47.266         23.238         40.000         0.0000
-47.161         -17.403        40.000         0.0000
-47.150         17.727         40.000         0.0000
-47.027         26.460         40.000         0.0000
-46.994         -19.266        40.000         0.0000
-46.923         -1.6565        40.000         0.0000
-46.920         37.397         40.000         0.0000
-46.919         -37.398        40.000         0.0000
-46.915         1.9100         40.000         0.0000
-46.883         -24.598        40.000         0.0000
-46.826         -21.129        40.000         0.0000
-46.819         19.753         40.000         0.0000
-46.792         -14.222        40.000         0.0000
-46.676         14.454         40.000         0.0000
-46.561         -27.821        40.000         0.0000
-46.488         21.780         40.000         0.0000
-46.444         -31.377        40.000         0.0000
-46.434         -10.380        40.000         0.0000
-46.355         31.679         40.000         0.0000
-46.307         -3.4748        40.000         0.0000
-46.291         3.6582         40.000         0.0000
-46.249         25.002         40.000         0.0000
-46.180         -8.4949        40.000         0.0000
-46.104         10.805         40.000         0.0000
-46.059         28.163         40.000         0.0000
-46.052         -23.023        40.000         0.0000
-46.031         -35.304        40.000         0.0000
-45.987         35.455         40.000         0.0000
-45.933         8.8229         40.000         0.0000
-45.926         -6.6103        40.000         0.0000
-45.762         6.8403         40.000         0.0000
-45.724         -15.859        40.000         0.0000
-45.686         16.006         40.000         0.0000
-45.556         -17.722        40.000         0.0000
-45.485         39.130         40.000         0.0000
-45.484         -39.130        40.000         0.0000
-45.472         23.544         40.000         0.0000
-45.464         -25.999        40.000         0.0000
-45.409         -29.469        40.000         0.0000
-45.388         -19.585        40.000         0.0000
-45.366         -12.016        40.000         0.0000
-45.356         18.032         40.000         0.0000
-45.220         -21.448        40.000         0.0000
-45.144         -33.210        40.000         0.0000
-45.115         12.357         40.000         0.0000
-45.090         29.867         40.000         0.0000
-45.065         0.16395        40.000         0.0000
-45.055         33.513         40.000         0.0000
-45.025         20.059         40.000         0.0000
-45.005         26.208         40.000         0.0000
-44.827         -36.943        40.000         0.0000
-44.694         22.086         40.000         0.0000
-44.669         37.061         40.000         0.0000
-44.633         -24.424        40.000         0.0000
-44.449         -1.6544        40.000         0.0000
-44.440         1.9121         40.000         0.0000
-44.312         -27.647        40.000         0.0000
-44.299         -13.653        40.000         0.0000
-44.256         -31.116        40.000         0.0000
-44.227         24.750         40.000         0.0000
-44.126         13.908         40.000         0.0000
-44.122         31.571         40.000         0.0000
-44.068         -4.7898        40.000         0.0000
-44.037         27.912         40.000         0.0000
-43.987         40.806         40.000         0.0000
-43.987         -40.807        40.000         0.0000
-43.941         -9.8099        40.000         0.0000
-43.939         -34.849        40.000         0.0000
-43.912         5.0942         40.000         0.0000
-43.802         -22.849        40.000         0.0000
-43.737         35.119         40.000         0.0000
-43.687         -7.9253        40.000         0.0000
-43.554         10.259         40.000         0.0000
-43.450         23.292         40.000         0.0000
-43.383         8.2764         40.000         0.0000
-43.360         -38.647        40.000         0.0000
-43.253         -16.631        40.000         0.0000
-43.215         -25.824        40.000         0.0000
-43.203         38.766         40.000         0.0000
-43.159         -29.294        40.000         0.0000
-43.139         16.996         40.000         0.0000
-43.085         -18.494        40.000         0.0000
-43.068         29.616         40.000         0.0000
-43.051         -32.755        40.000         0.0000
-42.983         25.957         40.000         0.0000
-42.918         -20.357        40.000         0.0000
-42.873         -11.447        40.000         0.0000
-42.808         19.022         40.000         0.0000
-42.804         33.177         40.000         0.0000
-42.734         -36.488        40.000         0.0000
-42.600         -31.091        40.000         0.0000
-42.590         0.16603        40.000         0.0000
-42.565         11.810         40.000         0.0000
-42.477         21.049         40.000         0.0000
-42.427         42.426         40.000         0.0000
-42.426         -42.427        40.000         0.0000
-42.419         36.725         40.000         0.0000
-42.383         -24.249        40.000         0.0000
-42.340         31.497         40.000         0.0000
-42.210         -2.9694        40.000         0.0000
-42.205         24.499         40.000         0.0000
-42.062         -27.472        40.000         0.0000
-42.062         3.3482         40.000         0.0000
-42.015         27.661         40.000         0.0000
-41.846         -34.394        40.000         0.0000
-41.831         -40.295        40.000         0.0000
-41.829         -6.1048        40.000         0.0000
-41.828         -14.425        40.000         0.0000
-41.674         40.414         40.000         0.0000
-41.578         14.898         40.000         0.0000
-41.533         6.5303         40.000         0.0000
-41.503         -29.269        40.000         0.0000
-41.499         -21.758        40.000         0.0000
-41.486         34.783         40.000         0.0000
-41.448         -9.2403        40.000         0.0000
-41.395         -32.730        40.000         0.0000
-41.287         29.542         40.000         0.0000
-41.236         -38.164        40.000         0.0000
-41.233         22.256         40.000         0.0000
-41.022         33.103         40.000         0.0000
-41.005         9.7124         40.000         0.0000
-40.965         -25.650        40.000         0.0000
-40.961         25.706         40.000         0.0000
-40.943         -31.065        40.000         0.0000
-40.921         38.402         40.000         0.0000
-40.807         43.987         40.000         0.0000
-40.806         -43.987        40.000         0.0000
-40.783         -17.403        40.000         0.0000
-40.642         -36.033        40.000         0.0000
-40.615         -19.266        40.000         0.0000
-40.592         17.986         40.000         0.0000
-40.558         31.424         40.000         0.0000
-40.436         -41.699        40.000         0.0000
-40.406         -27.447        40.000         0.0000
-40.403         -12.218        40.000         0.0000
-40.261         20.012         40.000         0.0000
-40.233         27.588         40.000         0.0000
-40.206         41.873         40.000         0.0000
-40.190         -34.368        40.000         0.0000
-40.176         -0.86345       40.000         0.0000
-40.168         36.389         40.000         0.0000
-40.081         -23.158        40.000         0.0000
-40.028         1.6368         40.000         0.0000
-40.018         12.800         40.000         0.0000
-39.989         23.463         40.000         0.0000
-39.846         -29.243        40.000         0.0000
-39.841         -39.567        40.000         0.0000
-39.795         -3.9989        40.000         0.0000
-39.739         -32.704        40.000         0.0000
-39.704         34.710         40.000         0.0000
-39.505         29.469         40.000         0.0000
-39.499         4.8189         40.000         0.0000
-39.453         39.861         40.000         0.0000
-39.415         -7.1343        40.000         0.0000
-39.357         -15.197        40.000         0.0000
-39.287         -31.040        40.000         0.0000
-39.247         -37.436        40.000         0.0000
-39.240         33.030         40.000         0.0000
-39.196         -20.666        40.000         0.0000
-39.130         45.484         40.000         0.0000
-39.130         -45.485        40.000         0.0000
-39.031         15.888         40.000         0.0000
-39.017         21.219         40.000         0.0000
-38.971         8.0011         40.000         0.0000
-38.924         -9.6375        40.000         0.0000
-38.788         -43.228        40.000         0.0000
-38.776         31.350         40.000         0.0000
-38.700         37.848         40.000         0.0000
-38.558         43.402         40.000         0.0000
-38.513         -35.420        40.000         0.0000
-38.446         -40.971        40.000         0.0000
-38.386         -25.841        40.000         0.0000
-38.312         -18.175        40.000         0.0000
-38.294         26.118         40.000         0.0000
-38.277         10.538         40.000         0.0000
-38.250         35.629         40.000         0.0000
-38.062         -33.755        40.000         0.0000
-38.044         18.976         40.000         0.0000
-37.985         41.320         40.000         0.0000
-37.879         -12.616        40.000         0.0000
-37.851         -38.839        40.000         0.0000
-37.827         -27.637        40.000         0.0000
-37.786         33.949         40.000         0.0000
-37.761         -1.8929        40.000         0.0000
-37.613         0.60731        40.000         0.0000
-37.610         -32.091        40.000         0.0000
-37.565         27.999         40.000         0.0000
-37.502         -23.349        40.000         0.0000
-37.465         3.1075         40.000         0.0000
-37.398         46.919         40.000         0.0000
-37.397         -46.920        40.000         0.0000
-37.381         -5.0283        40.000         0.0000
-37.322         32.269         40.000         0.0000
-37.321         23.874         40.000         0.0000
-37.291         13.626         40.000         0.0000
-37.268         -29.434        40.000         0.0000
-37.233         39.308         40.000         0.0000
-37.118         -36.823        40.000         0.0000
-37.084         -44.694        40.000         0.0000
-36.937         6.2897         40.000         0.0000
-36.890         -7.5315        40.000         0.0000
-36.854         44.868         40.000         0.0000
-36.837         29.880         40.000         0.0000
-36.833         -15.594        40.000         0.0000
-36.782         37.088         40.000         0.0000
-36.770         -42.468        40.000         0.0000
-36.618         -20.857        40.000         0.0000
-36.456         -40.243        40.000         0.0000
-36.400         -10.035        40.000         0.0000
-36.385         -34.807        40.000         0.0000
-36.349         21.631         40.000         0.0000
-36.331         34.868         40.000         0.0000
-36.309         42.818         40.000         0.0000
-36.304         16.714         40.000         0.0000
-36.243         8.8267         40.000         0.0000
-35.933         -33.142        40.000         0.0000
-35.867         33.188         40.000         0.0000
-35.808         -26.031        40.000         0.0000
-35.765         40.767         40.000         0.0000
-35.741         -17.974        40.000         0.0000
-35.723         -38.226        40.000         0.0000
-35.626         26.529         40.000         0.0000
-35.613         48.288         40.000         0.0000
-35.612         -48.288        40.000         0.0000
-35.591         -30.485        40.000         0.0000
-35.550         11.364         40.000         0.0000
-35.482         -45.995        40.000         0.0000
-35.382         30.799         40.000         0.0000
-35.355         -13.013        40.000         0.0000
-35.347         -2.9224        40.000         0.0000
-35.314         38.547         40.000         0.0000
-35.248         -27.827        40.000         0.0000
-35.209         46.001         40.000         0.0000
-35.199         -0.42217       40.000         0.0000
-35.169         -43.769        40.000         0.0000
-35.119         19.145         40.000         0.0000
-35.051         2.0781         40.000         0.0000
-34.990         -36.210        40.000         0.0000
-34.923         -23.539        40.000         0.0000
-34.903         4.5783         40.000         0.0000
-34.897         28.410         40.000         0.0000
-34.863         36.327         40.000         0.0000
-34.857         -5.4256        40.000         0.0000
-34.855         -41.543        40.000         0.0000
-34.783         -39.799        40.000         0.0000
-34.664         43.950         40.000         0.0000
-34.653         24.285         40.000         0.0000
-34.563         14.451         40.000         0.0000
-34.413         34.108         40.000         0.0000
-34.366         -7.9287        40.000         0.0000
-34.263         -15.394        40.000         0.0000
-34.256         -34.194        40.000         0.0000
-34.209         7.1153         40.000         0.0000
-34.120         41.900         40.000         0.0000
-34.055         40.272         40.000         0.0000
-34.049         -37.783        40.000         0.0000
-34.047         -20.657        40.000         0.0000
-33.928         31.718         40.000         0.0000
-33.914         -31.536        40.000         0.0000
-33.876         -10.432        40.000         0.0000
-33.779         49.588         40.000         0.0000
-33.778         -49.589        40.000         0.0000
-33.673         -47.329        40.000         0.0000
-33.604         38.052         40.000         0.0000
-33.571         -28.879        40.000         0.0000
-33.568         -45.069        40.000         0.0000
-33.516         9.6522         40.000         0.0000
-33.443         29.329         40.000         0.0000
-33.424         21.799         40.000         0.0000
-33.399         47.335         40.000         0.0000
-33.379         16.882         40.000         0.0000
-33.344         -1.5154        40.000         0.0000
-33.316         -35.766        40.000         0.0000
-33.254         -42.844        40.000         0.0000
-33.229         -26.221        40.000         0.0000
-33.196         0.98485        40.000         0.0000
-33.182         -41.099        40.000         0.0000
-33.171         -17.774        40.000         0.0000
-33.153         35.832         40.000         0.0000
-33.152         -3.6758        40.000         0.0000
-33.109         -39.355        40.000         0.0000
-33.048         3.4851         40.000         0.0000
-33.019         45.083         40.000         0.0000
-32.958         26.940         40.000         0.0000
-32.823         12.189         40.000         0.0000
-32.784         -12.813        40.000         0.0000
-32.662         -6.1789        40.000         0.0000
-32.631         5.6099         40.000         0.0000
-32.475         43.032         40.000         0.0000
-32.410         41.405         40.000         0.0000
-32.376         -37.339        40.000         0.0000
-32.353         -23.339        40.000         0.0000
-32.345         39.777         40.000         0.0000
-32.194         19.314         40.000         0.0000
-32.172         -8.6821        40.000         0.0000
-31.937         8.1469         40.000         0.0000
-31.897         50.819         40.000         0.0000
-31.896         -50.820        40.000         0.0000
-31.894         37.557         40.000         0.0000
-31.815         -48.595        40.000         0.0000
-31.771         -33.823        40.000         0.0000
-31.734         -46.370        40.000         0.0000
-31.728         24.454         40.000         0.0000
-31.692         -15.193        40.000         0.0000
-31.653         -44.144        40.000         0.0000
-31.638         14.620         40.000         0.0000
-31.601         33.901         40.000         0.0000
-31.581         -42.400        40.000         0.0000
-31.561         -10.715        40.000         0.0000
-31.541         48.601         40.000         0.0000
-31.508         -40.656        40.000         0.0000
-31.476         -20.457        40.000         0.0000
-31.436         -38.911        40.000         0.0000
-31.428         -31.165        40.000         0.0000
-31.342         -0.10836       40.000         0.0000
-31.244         10.684         40.000         0.0000
-31.194         2.3919         40.000         0.0000
-31.185         46.383         40.000         0.0000
-31.150         -2.2688        40.000         0.0000
-31.116         31.512         40.000         0.0000
-31.086         -28.508        40.000         0.0000
-30.958         -4.4292        40.000         0.0000
-30.831         -35.395        40.000         0.0000
-30.830         44.165         40.000         0.0000
-30.776         4.5167         40.000         0.0000
-30.771         -25.574        40.000         0.0000
-30.765         42.537         40.000         0.0000
-30.700         40.910         40.000         0.0000
-30.634         39.282         40.000         0.0000
-30.631         29.123         40.000         0.0000
-30.600         -17.574        40.000         0.0000
-30.499         21.968         40.000         0.0000
-30.469         -13.096        40.000         0.0000
-30.468         -6.9323        40.000         0.0000
-30.454         17.051         40.000         0.0000
-30.434         12.621         40.000         0.0000
-30.359         6.6415         40.000         0.0000
-30.341         35.626         40.000         0.0000
-30.182         -49.628        40.000         0.0000
-30.101         -47.403        40.000         0.0000
-30.047         26.491         40.000         0.0000
-30.020         -45.177        40.000         0.0000
-29.969         51.979         40.000         0.0000
-29.968         -51.980        40.000         0.0000
-29.895         -22.692        40.000         0.0000
-29.891         -36.968        40.000         0.0000
-29.867         49.770         40.000         0.0000
-29.857         -8.9654        40.000         0.0000
-29.706         -43.102        40.000         0.0000
-29.666         9.1785         40.000         0.0000
-29.634         -41.358        40.000         0.0000
-29.561         -39.614        40.000         0.0000
-29.512         47.552         40.000         0.0000
-29.377         -15.477        40.000         0.0000
-29.339         1.2987         40.000         0.0000
-29.285         -33.452        40.000         0.0000
-29.269         19.482         40.000         0.0000
-29.249         15.052         40.000         0.0000
-29.246         -10.998        40.000         0.0000
-29.156         45.334         40.000         0.0000
-29.147         -0.86175       40.000         0.0000
-29.114         43.080         40.000         0.0000
-29.082         37.351         40.000         0.0000
-29.049         41.453         40.000         0.0000
-29.019         -19.809        40.000         0.0000
-28.984         39.825         40.000         0.0000
-28.955         -3.0222        40.000         0.0000
-28.943         -30.794        40.000         0.0000
-28.922         3.4235         40.000         0.0000
-28.855         11.116         40.000         0.0000
-28.818         24.005         40.000         0.0000
-28.788         33.695         40.000         0.0000
-28.763         -5.1826        40.000         0.0000
-28.628         -27.861        40.000         0.0000