% Model:              capacitor_fringing_fields - sc-2-qw.mph
% Version:            COMSOL 5.1.0.136
% Date:               Dec 16 2018, 23:13
% Dimension:          3
% Nodes:              14221
% Expressions:        1
% Description:        Surface charge density
% Length unit:        nm
% x             y              z              es.nD (C/m^2)
-60.000         0.0000         35.000         0.0000
-59.958         2.2440         35.000         0.0000
-59.958         -2.2440        35.000         0.0000
-59.832         4.4832         35.000         0.0000
-59.832         -4.4834        35.000         0.0000
-59.623         6.7178         35.000         0.0000
-59.623         -6.7180        35.000         0.0000
-59.330         8.9429         35.000         0.0000
-59.330         -8.9433        35.000         0.0000
-58.954         11.154         35.000         0.0000
-58.954         -11.154        35.000         0.0000
-58.496         13.351         35.000         0.0000
-58.496         -13.352        35.000         0.0000
-58.106         -0.96445       35.000         0.0000
-58.022         -3.2061        35.000         0.0000
-58.008         1.0699         35.000         0.0000
-57.955         15.529         35.000         0.0000
-57.955         -15.530        35.000         0.0000
-57.924         3.3115         35.000         0.0000
-57.854         -5.4431        35.000         0.0000
-57.757         5.5484         35.000         0.0000
-57.607         7.6030         35.000         0.0000
-57.569         -7.4850        35.000         0.0000
-57.335         17.685         35.000         0.0000
-57.334         -17.685        35.000         0.0000
-57.272         9.8211         35.000         0.0000
-57.234         -9.7032        35.000         0.0000
-56.855         12.025         35.000         0.0000
-56.817         -11.907        35.000         0.0000
-56.633         19.816         35.000         0.0000
-56.633         -19.817        35.000         0.0000
-56.426         -13.938        35.000         0.0000
-56.320         13.978         35.000         0.0000
-56.211         -1.9289        35.000         0.0000
-56.114         0.10543        35.000         0.0000
-56.085         -4.1682        35.000         0.0000
-56.016         2.1398         35.000         0.0000
-55.890         4.3790         35.000         0.0000
-55.852         21.921         35.000         0.0000
-55.852         -21.922        35.000         0.0000
-55.846         -16.104        35.000         0.0000
-55.800         -6.2101        35.000         0.0000
-55.741         6.4336         35.000         0.0000
-55.740         16.145         35.000         0.0000
-55.591         8.4882         35.000         0.0000
-55.515         -8.2519        35.000         0.0000
-55.215         10.699         35.000         0.0000
-55.184         -18.248        35.000         0.0000
-55.139         -10.463        35.000         0.0000
-55.078         18.289         35.000         0.0000
-54.994         23.993         35.000         0.0000
-54.994         -23.994        35.000         0.0000
-54.748         -12.493        35.000         0.0000
-54.680         12.652         35.000         0.0000
-54.505         -20.041        35.000         0.0000
-54.464         20.228         35.000         0.0000
-54.357         -14.523        35.000         0.0000
-54.317         -2.8933        35.000         0.0000
-54.219         -0.85902       35.000         0.0000
-54.145         14.606         35.000         0.0000
-54.122         1.1753         35.000         0.0000
-54.058         26.033         35.000         0.0000
-54.058         -26.034        35.000         0.0000
-54.031         -4.9352        35.000         0.0000
-54.024         3.2096         35.000         0.0000
-53.874         5.2642         35.000         0.0000
-53.746         -6.9770        35.000         0.0000
-53.736         -16.679        35.000         0.0000
-53.725         7.3188         35.000         0.0000
-53.685         -22.130        35.000         0.0000
-53.645         22.316         35.000         0.0000
-53.575         9.3734         35.000         0.0000
-53.524         16.761         35.000         0.0000
-53.461         -9.0188        35.000         0.0000
-53.070         -11.049        35.000         0.0000
-53.056         -18.472        35.000         0.0000
-53.047         28.036         35.000         0.0000
-53.046         -28.037        35.000         0.0000
-53.040         11.327         35.000         0.0000
-52.909         18.700         35.000         0.0000
-52.894         -1.8394        35.000         0.0000
-52.797         0.19493        35.000         0.0000
-52.788         -24.186        35.000         0.0000
-52.748         24.372         35.000         0.0000
-52.699         2.2292         35.000         0.0000
-52.678         -13.079        35.000         0.0000
-52.504         13.280         35.000         0.0000
-52.376         -20.265        35.000         0.0000
-52.295         20.640         35.000         0.0000
-52.287         -15.109        35.000         0.0000
-52.245         -3.7381        35.000         0.0000
-52.058         4.0327         35.000         0.0000
-51.969         15.233         35.000         0.0000
-51.962         29.999         35.000         0.0000
-51.961         -30.000        35.000         0.0000
-51.960         -5.7800        35.000         0.0000
-51.956         10.083         35.000         0.0000
-51.928         -9.6750        35.000         0.0000
-51.926         -26.090        35.000         0.0000
-51.908         6.0873         35.000         0.0000
-51.824         26.204         35.000         0.0000
-51.759         8.1419         35.000         0.0000
-51.675         -7.8218        35.000         0.0000
-51.608         -16.903        35.000         0.0000
-51.537         -11.705        35.000         0.0000
-51.518         -22.337        35.000         0.0000
-51.472         -0.78545       35.000         0.0000
-51.437         22.712         35.000         0.0000
-51.421         12.036         35.000         0.0000
-51.375         1.2489         35.000         0.0000
-51.355         17.172         35.000         0.0000
-51.145         -13.735        35.000         0.0000
-50.928         -18.696        35.000         0.0000
-50.886         13.989         35.000         0.0000
-50.877         -28.073        35.000         0.0000
-50.823         -2.6842        35.000         0.0000
-50.804         31.922         35.000         0.0000
-50.803         -31.923        35.000         0.0000
-50.775         28.187         35.000         0.0000
-50.741         19.112         35.000         0.0000
-50.733         3.0524         35.000         0.0000
-50.656         -24.242        35.000         0.0000
-50.513         24.543         35.000         0.0000
-50.395         -10.331        35.000         0.0000
-50.337         10.792         35.000         0.0000
-50.248         -20.489        35.000         0.0000
-50.174         -4.5829        35.000         0.0000
-50.142         -8.4780        35.000         0.0000
-50.140         8.8513         35.000         0.0000
-50.126         21.051         35.000         0.0000
-50.092         4.8558         35.000         0.0000
-50.056         -15.393        35.000         0.0000
-50.050         0.26849        35.000         0.0000
-50.004         -12.361        35.000         0.0000
-49.942         6.9104         35.000         0.0000
-49.919         15.468         35.000         0.0000
-49.889         -6.6248        35.000         0.0000
-49.802         12.745         35.000         0.0000
-49.794         -26.146        35.000         0.0000
-49.756         -30.016        35.000         0.0000
-49.654         30.130         35.000         0.0000
-49.589         26.375         35.000         0.0000
-49.574         33.799         35.000         0.0000
-49.574         -33.800        35.000         0.0000
-49.409         2.0720         35.000         0.0000
-49.401         -1.6303        35.000         0.0000
-49.386         -22.394        35.000         0.0000
-49.376         -17.186        35.000         0.0000
-49.305         17.408         35.000         0.0000
-49.202         22.883         35.000         0.0000
-48.914         -14.019        35.000         0.0000
-48.862         -10.987        35.000         0.0000
-48.836         14.225         35.000         0.0000
-48.767         3.8755         35.000         0.0000
-48.752         -3.5290        35.000         0.0000
-48.719         11.502         35.000         0.0000
-48.709         -28.109        35.000         0.0000
-48.707         -31.648        35.000         0.0000
-48.696         -18.979        35.000         0.0000
-48.691         19.347         35.000         0.0000
-48.609         -9.1342        35.000         0.0000
-48.561         -20.827        35.000         0.0000
-48.558         31.870         35.000         0.0000
-48.524         -24.298        35.000         0.0000
-48.521         9.5607         35.000         0.0000
-48.504         28.338         35.000         0.0000
-48.405         21.375         35.000         0.0000
-48.356         -7.2810        35.000         0.0000
-48.324         7.6198         35.000         0.0000
-48.278         24.715         35.000         0.0000
-48.276         35.628         35.000         0.0000
-48.276         -35.629        35.000         0.0000
-48.126         5.6789         35.000         0.0000
-48.103         -5.4277        35.000         0.0000
-47.869         15.704         35.000         0.0000
-47.824         -15.676        35.000         0.0000
-47.772         -12.645        35.000         0.0000
-47.752         12.981         35.000         0.0000
-47.699         -22.731        35.000         0.0000
-47.661         -26.202        35.000         0.0000
-47.660         -29.741        35.000         0.0000
-47.481         23.207         35.000         0.0000
-47.466         0.30435        35.000         0.0000
-47.443         -33.501        35.000         0.0000
-47.408         30.079         35.000         0.0000
-47.354         26.547         35.000         0.0000
-47.294         33.724         35.000         0.0000
-47.255         17.643         35.000         0.0000
-47.144         -17.469        35.000         0.0000
-47.010         -19.316        35.000         0.0000
-46.969         19.671         35.000         0.0000
-46.910         37.409         35.000         0.0000
-46.909         -37.410        35.000         0.0000
-46.875         -21.164        35.000         0.0000
-46.837         -24.635        35.000         0.0000
-46.825         2.1078         35.000         0.0000
-46.817         -1.5944        35.000         0.0000
-46.786         14.460         35.000         0.0000
-46.684         21.700         35.000         0.0000
-46.682         -14.302        35.000         0.0000
-46.612         -27.834        35.000         0.0000
-46.611         -31.373        35.000         0.0000
-46.557         25.039         35.000         0.0000
-46.365         -10.432        35.000         0.0000
-46.312         31.819         35.000         0.0000
-46.283         11.012         35.000         0.0000
-46.258         28.287         35.000         0.0000
-46.183         3.9113         35.000         0.0000
-46.168         -3.4931        35.000         0.0000
-46.112         -8.5788        35.000         0.0000
-46.111         -35.306        35.000         0.0000
-46.085         9.0708         35.000         0.0000
-46.013         -23.068        35.000         0.0000
-45.962         35.529         35.000         0.0000
-45.888         7.1300         35.000         0.0000
-45.859         -6.7256        35.000         0.0000
-45.819         15.940         35.000         0.0000
-45.760         23.531         35.000         0.0000
-45.592         -15.959        35.000         0.0000
-45.563         -29.466        35.000         0.0000
-45.534         17.968         35.000         0.0000
-45.478         39.137         35.000         0.0000
-45.478         -39.138        35.000         0.0000
-45.458         -17.806        35.000         0.0000
-45.428         -26.032        35.000         0.0000
-45.323         -19.654        35.000         0.0000
-45.316         12.491         35.000         0.0000
-45.313         -33.202        35.000         0.0000
-45.276         26.255         35.000         0.0000
-45.276         -12.089        35.000         0.0000
-45.248         19.996         35.000         0.0000
-45.189         -21.501        35.000         0.0000
-45.162         30.028         35.000         0.0000
-45.014         33.648         35.000         0.0000
-44.963         22.024         35.000         0.0000
-44.882         0.34022        35.000         0.0000
-44.825         -36.970        35.000         0.0000
-44.604         -24.465        35.000         0.0000
-44.597         37.004         35.000         0.0000
-44.515         -31.098        35.000         0.0000
-44.479         24.748         35.000         0.0000
-44.379         -27.664        35.000         0.0000
-44.350         13.970         35.000         0.0000
-44.241         2.1437         35.000         0.0000
-44.233         -1.5585        35.000         0.0000
-44.186         -13.746        35.000         0.0000
-44.180         27.996         35.000         0.0000
-44.066         31.768         35.000         0.0000
-44.027         -34.866        35.000         0.0000
-43.984         40.810         35.000         0.0000
-43.983         -40.810        35.000         0.0000
-43.945         5.3623         35.000         0.0000
-43.925         -4.7910        35.000         0.0000
-43.869         -9.8766        35.000         0.0000
-43.847         10.522         35.000         0.0000
-43.780         -22.897        35.000         0.0000
-43.682         23.240         35.000         0.0000
-43.649         8.5810         35.000         0.0000
-43.649         35.123         35.000         0.0000
-43.616         -8.0234        35.000         0.0000
-43.362         -38.670        35.000         0.0000
-43.330         -29.295        35.000         0.0000
-43.228         -32.762        35.000         0.0000
-43.225         16.980         35.000         0.0000
-43.198         25.964         35.000         0.0000
-43.195         -25.861        35.000         0.0000
-43.161         -16.726        35.000         0.0000
-43.134         38.704         35.000         0.0000
-43.084         29.736         35.000         0.0000
-43.026         -18.574        35.000         0.0000
-42.940         19.008         35.000         0.0000
-42.892         -20.421        35.000         0.0000
-42.880         12.001         35.000         0.0000
-42.780         -11.534        35.000         0.0000
-42.744         -31.047        35.000         0.0000
-42.740         -36.529        35.000         0.0000
-42.701         33.243         35.000         0.0000
-42.654         21.036         35.000         0.0000
-42.427         42.426         35.000         0.0000
-42.426         -42.427        35.000         0.0000
-42.401         24.456         35.000         0.0000
-42.370         -24.294        35.000         0.0000
-42.298         0.37608        35.000         0.0000
-42.284         36.598         35.000         0.0000
-42.265         31.663         35.000         0.0000
-42.146         -27.493        35.000         0.0000
-42.102         27.704         35.000         0.0000
-42.002         3.5947         35.000         0.0000
-41.990         -2.8564        35.000         0.0000
-41.942         -34.425        35.000         0.0000
-41.836         -40.314        35.000         0.0000
-41.756         15.011         35.000         0.0000
-41.754         -14.514        35.000         0.0000
-41.707         6.8133         35.000         0.0000
-41.681         -6.0888        35.000         0.0000
-41.608         40.348         35.000         0.0000
-41.560         -29.245        35.000         0.0000
-41.483         -21.817        35.000         0.0000
-41.458         -32.711        35.000         0.0000
-41.411         10.032         35.000         0.0000
-41.373         22.252         35.000         0.0000
-41.373         -9.3212        35.000         0.0000
-41.336         34.718         35.000         0.0000
-41.283         29.631         35.000         0.0000
-41.246         -38.201        35.000         0.0000
-41.120         25.673         35.000         0.0000
-40.974         -30.997        35.000         0.0000
-40.961         -25.690        35.000         0.0000
-40.900         33.138         35.000         0.0000
-40.810         43.983         35.000         0.0000
-40.810         -43.984        35.000         0.0000
-40.789         38.270         35.000         0.0000
-40.729         -17.494        35.000         0.0000
-40.656         -36.089        35.000         0.0000
-40.632         18.020         35.000         0.0000
-40.595         -19.341        35.000         0.0000
-40.464         31.558         35.000         0.0000
-40.447         -41.698        35.000         0.0000
-40.376         -27.442        35.000         0.0000
-40.348         -12.301        35.000         0.0000
-40.346         20.048         35.000         0.0000
-40.301         27.599         35.000         0.0000
-40.287         13.041         35.000         0.0000
-40.233         41.873         35.000         0.0000
-40.172         -34.374        35.000         0.0000
-40.092         23.468         35.000         0.0000
-40.074         -23.214        35.000         0.0000
-39.970         36.193         35.000         0.0000
-39.931         -0.68292       35.000         0.0000
-39.857         -39.586        35.000         0.0000
-39.848         1.8671         35.000         0.0000
-39.790         -29.194        35.000         0.0000
-39.688         -32.660        35.000         0.0000
-39.623         -3.9154        35.000         0.0000
-39.553         5.0857         35.000         0.0000
-39.535         34.613         35.000         0.0000
-39.482         29.526         35.000         0.0000
-39.414         39.796         35.000         0.0000
-39.323         -15.281        35.000         0.0000
-39.314         -7.1478        35.000         0.0000
-39.267         -37.473        35.000         0.0000
-39.257         8.3043         35.000         0.0000
-39.204         -30.946        35.000         0.0000
-39.186         -20.737        35.000         0.0000
-39.162         16.051         35.000         0.0000
-39.138         45.478         35.000         0.0000
-39.137         -45.478        35.000         0.0000
-39.099         33.032         35.000         0.0000
-39.065         21.264         35.000         0.0000
-38.869         -9.7612        35.000         0.0000
-38.803         -43.224        35.000         0.0000
-38.663         31.452         35.000         0.0000
-38.595         37.718         35.000         0.0000
-38.588         43.399         35.000         0.0000
-38.582         10.899         35.000         0.0000
-38.530         -35.464        35.000         0.0000
-38.471         -25.899        35.000         0.0000
-38.468         -40.970        35.000         0.0000
-38.415         26.136         35.000         0.0000
-38.298         -18.261        35.000         0.0000
-38.101         35.507         35.000         0.0000
-38.046         -33.750        35.000         0.0000
-38.039         41.321         35.000         0.0000
-38.038         19.060         35.000         0.0000
-37.885         -27.651        35.000         0.0000
-37.878         -38.857        35.000         0.0000
-37.844         -12.741        35.000         0.0000
-37.665         33.927         35.000         0.0000
-37.596         28.062         35.000         0.0000
-37.583         -23.423        35.000         0.0000
-37.564         -1.7419        35.000         0.0000
-37.562         -32.036        35.000         0.0000
-37.481         0.80807        35.000         0.0000
-37.458         13.908         35.000         0.0000
-37.410         46.909         35.000         0.0000
-37.409         -46.910        35.000         0.0000
-37.399         3.3581         35.000         0.0000
-37.387         23.932         35.000         0.0000
-37.299         -29.403        35.000         0.0000
-37.256         -4.9744        35.000         0.0000
-37.229         32.347         35.000         0.0000
-37.220         39.243         35.000         0.0000
-37.141         -36.848        35.000         0.0000
-37.103         6.5767         35.000         0.0000
-37.102         -44.687        35.000         0.0000
-36.888         44.862         35.000         0.0000
-36.819         -15.721        35.000         0.0000
-36.810         -7.5878        35.000         0.0000
-36.796         -42.464        35.000         0.0000
-36.777         29.989         35.000         0.0000
-36.726         37.032         35.000         0.0000
-36.695         -20.946        35.000         0.0000
-36.489         -40.241        35.000         0.0000
-36.428         9.1709         35.000         0.0000
-36.405         -34.840        35.000         0.0000
-36.367         42.815         35.000         0.0000
-36.365         -10.201        35.000         0.0000
-36.360         21.727         35.000         0.0000
-36.333         16.917         35.000         0.0000
-36.232         34.821         35.000         0.0000
-35.980         -26.108        35.000         0.0000
-35.921         -33.126        35.000         0.0000
-35.845         40.768         35.000         0.0000
-35.796         33.241         35.000         0.0000
-35.753         11.765         35.000         0.0000
-35.752         -38.233        35.000         0.0000
-35.745         -18.002        35.000         0.0000
-35.710         26.599         35.000         0.0000
-35.658         -30.493        35.000         0.0000
-35.629         48.276         35.000         0.0000
-35.628         -48.276        35.000         0.0000
-35.482         -46.001        35.000         0.0000
-35.394         -27.860        35.000         0.0000
-35.351         38.557         35.000         0.0000
-35.343         30.883         35.000         0.0000
-35.340         -13.181        35.000         0.0000
-35.226         46.074         35.000         0.0000
-35.197         -2.8009        35.000         0.0000
-35.175         -43.778        35.000         0.0000
-35.114         -0.25093       35.000         0.0000
-35.096         19.309         35.000         0.0000
-35.092         -23.632        35.000         0.0000
-35.032         2.2991         35.000         0.0000
-35.016         -36.224        35.000         0.0000
-34.949         4.8490         35.000         0.0000
-34.891         28.526         35.000         0.0000
-34.868         -41.555        35.000         0.0000
-34.857         36.346         35.000         0.0000
-34.801         -39.784        35.000         0.0000
-34.752         -5.4143        35.000         0.0000
-34.704         44.026         35.000         0.0000
-34.682         24.395         35.000         0.0000
-34.629         14.775         35.000         0.0000
-34.363         34.135         35.000         0.0000
-34.306         -8.0277        35.000         0.0000
-34.280         -34.215        35.000         0.0000
-34.274         7.4433         35.000         0.0000
-34.266         -15.462        35.000         0.0000
-34.183         41.979         35.000         0.0000
-34.142         -20.687        35.000         0.0000
-34.120         40.272         35.000         0.0000
-34.065         -37.775        35.000         0.0000
-34.016         -31.583        35.000         0.0000
-33.910         31.778         35.000         0.0000
-33.860         -10.641        35.000         0.0000
-33.800         49.574         35.000         0.0000
-33.799         -49.574        35.000         0.0000
-33.753         -28.950        35.000         0.0000
-33.677         -47.333        35.000         0.0000
-33.626         38.061         35.000         0.0000
-33.599         10.038         35.000         0.0000
-33.555         -45.091        35.000         0.0000
-33.490         -26.317        35.000         0.0000
-33.457         29.420         35.000         0.0000
-33.421         47.406         35.000         0.0000
-33.418         21.977         35.000         0.0000
-33.392         17.167         35.000         0.0000
-33.328         -35.767        35.000         0.0000
-33.248         -42.868        35.000         0.0000
-33.209         -1.4768        35.000         0.0000
-33.192         -17.743        35.000         0.0000
-33.181         -41.097        35.000         0.0000
-33.132         35.850         35.000         0.0000
-33.126         1.0732         35.000         0.0000
-33.114         -39.326        35.000         0.0000
-33.080         -3.5639        35.000         0.0000
-33.043         3.6232         35.000         0.0000
-33.042         45.238         35.000         0.0000
-33.004         27.062         35.000         0.0000
-32.925         12.632         35.000         0.0000
-32.787         -12.922        35.000         0.0000
-32.672         5.7857         35.000         0.0000
-32.635         -6.1773        35.000         0.0000
-32.540         -23.372        35.000         0.0000
-32.521         43.191         35.000         0.0000
-32.458         41.483         35.000         0.0000
-32.395         39.776         35.000         0.0000
-32.377         -37.318        35.000         0.0000
-32.189         -8.7908        35.000         0.0000
-32.154         19.559         35.000         0.0000
-31.997         8.3800         35.000         0.0000
-31.923         50.803         35.000         0.0000
-31.922         -50.804        35.000         0.0000
-31.901         37.566         35.000         0.0000
-31.823         -48.596        35.000         0.0000
-31.791         -33.807        35.000         0.0000
-31.741         24.644         35.000         0.0000
-31.725         -46.389        35.000         0.0000
-31.713         -15.203        35.000         0.0000
-31.687         15.024         35.000         0.0000
-31.627         -44.181        35.000         0.0000
-31.616         33.951         35.000         0.0000
-31.590         -20.428        35.000         0.0000
-31.568         48.669         35.000         0.0000
-31.560         -42.411        35.000         0.0000
-31.528         -31.175        35.000         0.0000
-31.505         -10.893        35.000         0.0000
-31.493         -40.640        35.000         0.0000
-31.426         -38.869        35.000         0.0000
-31.322         10.974         35.000         0.0000
-31.265         -28.542        35.000         0.0000
-31.220         -0.15263       35.000         0.0000
-31.213         46.536         35.000         0.0000
-31.163         31.593         35.000         0.0000
-31.137         2.3974         35.000         0.0000
-31.092         -2.2398        35.000         0.0000
-30.963         -4.3269        35.000         0.0000
-30.938         -25.626        35.000         0.0000
-30.859         44.402         35.000         0.0000
-30.840         -35.359        35.000         0.0000
-30.796         42.695         35.000         0.0000
-30.766         4.5599         35.000         0.0000
-30.733         40.988         35.000         0.0000
-30.710         29.235         35.000         0.0000
-30.671         39.281         35.000         0.0000
-30.640         -17.484        35.000         0.0000
-30.517         -6.9403        35.000         0.0000
-30.484         12.959         35.000         0.0000
-30.477         22.226         35.000         0.0000
-30.450         17.416         35.000         0.0000
-30.432         -13.174        35.000         0.0000
-30.394         6.7224         35.000         0.0000
-30.385         35.666         35.000         0.0000
-30.127         -49.588        35.000         0.0000
-30.079         26.628         35.000         0.0000
-30.029         -47.381        35.000         0.0000
-30.000         51.961         35.000         0.0000
-29.999         -51.962        35.000         0.0000
-29.988         -22.681        35.000         0.0000
-29.931         -45.173        35.000         0.0000
-29.903         49.750         35.000         0.0000
-29.889         -36.910        35.000         0.0000
-29.834         -9.0426        35.000         0.0000
-29.719         9.3167         35.000         0.0000
-29.669         -43.107        35.000         0.0000
-29.602         -41.336        35.000         0.0000
-29.548         47.616         35.000         0.0000
-29.535         -39.565        35.000         0.0000
-29.358         -15.455        35.000         0.0000
-29.303         -33.399        35.000         0.0000
-29.246         15.351         35.000         0.0000
-29.232         1.1715         35.000         0.0000
-29.213         19.808         35.000         0.0000
-29.194         45.482         35.000         0.0000
-29.172         43.228         35.000         0.0000
-29.154         37.381         35.000         0.0000
-29.150         -11.145        35.000         0.0000
-29.109         41.521         35.000         0.0000
-29.103         -0.91564       35.000         0.0000
-29.046         39.814         35.000         0.0000
-29.039         -30.766        35.000         0.0000
-29.038         -19.737        35.000         0.0000
-28.974         -3.0028        35.000         0.0000
-28.881         11.301         35.000         0.0000
-28.868         33.766         35.000         0.0000
-28.860         3.3341         35.000         0.0000
-28.846         -5.0899        35.000         0.0000
-28.815         24.210         35.000         0.0000
-28.713         -27.850        35.000         0.0000