% Model:              capacitor_fringing_fields - sc-2-qw.mph
% Version:            COMSOL 5.1.0.136
% Date:               Dec 16 2018, 23:12
% Dimension:          3
% Nodes:              14752
% Expressions:        1
% Description:        Surface charge density
% Length unit:        nm
% x             y              z              es.nD (C/m^2)
-60.000         0.0000         17.900         0.0000
-59.963         2.1091         17.900         0.0000
-59.963         -2.1092        17.900         0.0000
-59.852         4.2143         17.900         0.0000
-59.852         -4.2145        17.900         0.0000
-59.667         6.3156         17.900         0.0000
-59.667         -6.3159        17.900         0.0000
-59.387         8.5580         17.900         0.0000
-59.386         -8.5584        17.900         0.0000
-59.022         10.787         17.900         0.0000
-59.022         -10.787        17.900         0.0000
-58.574         13.002         17.900         0.0000
-58.574         -13.002        17.900         0.0000
-58.041         15.206         17.900         0.0000
-58.041         -15.207        17.900         0.0000
-58.023         -1.0635        17.900         0.0000
-57.981         1.0892         17.900         0.0000
-57.949         -3.1708        17.900         0.0000
-57.907         3.1964         17.900         0.0000
-57.800         -5.2741        17.900         0.0000
-57.758         5.2996         17.900         0.0000
-57.641         7.2057         17.900         0.0000
-57.487         -6.9056        17.900         0.0000
-57.425         17.388         17.900         0.0000
-57.425         -17.388        17.900         0.0000
-57.319         9.4412         17.900         0.0000
-57.165         -9.1412        17.900         0.0000
-56.913         11.663         17.900         0.0000
-56.759         -11.363        17.900         0.0000
-56.727         19.546         17.900         0.0000
-56.727         -19.547        17.900         0.0000
-56.346         -13.619        17.900         0.0000
-56.226         13.743         17.900         0.0000
-56.045         -2.1271        17.900         0.0000
-56.003         0.025677       17.900         0.0000
-55.961         2.1784         17.900         0.0000
-55.948         21.676         17.900         0.0000
-55.947         -21.677        17.900         0.0000
-55.934         -4.2324        17.900         0.0000
-55.850         4.2836         17.900         0.0000
-55.771         -15.812        17.900         0.0000
-55.733         6.1897         17.900         0.0000
-55.652         15.936         17.900         0.0000
-55.621         -5.8638        17.900         0.0000
-55.616         8.0957         17.900         0.0000
-55.308         -7.4952        17.900         0.0000
-55.252         10.324         17.900         0.0000
-55.114         -17.982        17.900         0.0000
-55.089         23.774         17.900         0.0000
-55.089         -23.775        17.900         0.0000
-54.995         18.106         17.900         0.0000
-54.943         -9.7241        17.900         0.0000
-54.565         12.404         17.900         0.0000
-54.530         -11.980        17.900         0.0000
-54.479         -19.586        17.900         0.0000
-54.426         19.771         17.900         0.0000
-54.151         25.839         17.900         0.0000
-54.151         -25.840        17.900         0.0000
-54.117         -14.236        17.900         0.0000
-54.068         -3.1906        17.900         0.0000
-54.026         -1.0379        17.900         0.0000
-53.984         1.1149         17.900         0.0000
-53.942         3.2676         17.900         0.0000
-53.878         14.484         17.900         0.0000
-53.825         5.1737         17.900         0.0000
-53.755         -4.8220        17.900         0.0000
-53.708         7.0797         17.900         0.0000
-53.660         -21.700        17.900         0.0000
-53.607         21.885         17.900         0.0000
-53.591         8.9857         17.900         0.0000
-53.502         -16.417        17.900         0.0000
-53.441         -6.4535        17.900         0.0000
-53.262         16.666         17.900         0.0000
-53.136         27.867         17.900         0.0000
-53.135         -27.868        17.900         0.0000
-53.128         -8.0849        17.900         0.0000
-52.904         11.066         17.900         0.0000
-52.866         -18.022        17.900         0.0000
-52.761         -23.782        17.900         0.0000
-52.715         -10.341        17.900         0.0000
-52.708         23.966         17.900         0.0000
-52.693         18.331         17.900         0.0000
-52.617         -1.9268        17.900         0.0000
-52.575         0.22592        17.900         0.0000
-52.533         2.3787         17.900         0.0000
-52.302         -12.597        17.900         0.0000
-52.231         -19.626        17.900         0.0000
-52.217         13.145         17.900         0.0000
-52.124         19.996         17.900         0.0000
-52.057         3.9566         17.900         0.0000
-52.045         29.854         17.900         0.0000
-52.045         -29.855        17.900         0.0000
-51.940         5.8626         17.900         0.0000
-51.896         -25.876        17.900         0.0000
-51.889         -14.853        17.900         0.0000
-51.839         -3.5577        17.900         0.0000
-51.823         7.7686         17.900         0.0000
-51.796         9.5672         17.900         0.0000
-51.666         26.032         17.900         0.0000
-51.530         15.225         17.900         0.0000
-51.525         -5.1892        17.900         0.0000
-51.447         -8.7984        17.900         0.0000
-51.372         -21.724        17.900         0.0000
-51.265         22.094         17.900         0.0000
-51.253         -16.457        17.900         0.0000
-51.212         -6.8206        17.900         0.0000
-51.167         -0.66304       17.900         0.0000
-51.125         1.4897         17.900         0.0000
-51.109         11.647         17.900         0.0000
-51.034         -11.054        17.900         0.0000
-50.961         16.891         17.900         0.0000
-50.880         31.800         17.900         0.0000
-50.879         -31.801        17.900         0.0000
-50.843         -27.884        17.900         0.0000
-50.649         3.0676         17.900         0.0000
-50.621         -13.310        17.900         0.0000
-50.618         -18.061        17.900         0.0000
-50.614         28.040         17.900         0.0000
-50.507         -23.818        17.900         0.0000
-50.422         13.727         17.900         0.0000
-50.392         18.556         17.900         0.0000
-50.388         -2.2939        17.900         0.0000
-50.224         24.159         17.900         0.0000
-50.173         4.6455         17.900         0.0000
-50.056         6.5515         17.900         0.0000
-50.028         8.3501         17.900         0.0000
-50.001         10.149         17.900         0.0000
-49.983         -19.666        17.900         0.0000
-49.823         20.221         17.900         0.0000
-49.766         -9.5118        17.900         0.0000
-49.716         0.60074        17.900         0.0000
-49.715         -29.850        17.900         0.0000
-49.642         -25.913        17.900         0.0000
-49.641         33.701         17.900         0.0000
-49.641         -33.702        17.900         0.0000
-49.609         -3.9249        17.900         0.0000
-49.560         -14.857        17.900         0.0000
-49.531         -7.5341        17.900         0.0000
-49.486         30.006         17.900         0.0000
-49.353         -11.768        17.900         0.0000
-49.314         12.229         17.900         0.0000
-49.296         -5.5563        17.900         0.0000
-49.240         2.1786         17.900         0.0000
-49.202         15.375         17.900         0.0000
-49.182         26.225         17.900         0.0000
-49.118         -21.760        17.900         0.0000
-48.937         -1.0302        17.900         0.0000
-48.925         -16.461        17.900         0.0000
-48.781         22.287         17.900         0.0000
-48.764         3.7565         17.900         0.0000
-48.648         -31.346        17.900         0.0000
-48.632         17.040         17.900         0.0000
-48.622         31.514         17.900         0.0000
-48.551         -27.900        17.900         0.0000
-48.333         35.551         17.900         0.0000
-48.332         -35.552        17.900         0.0000
-48.292         -13.315        17.900         0.0000
-48.290         -18.066        17.900         0.0000
-48.288         5.3344         17.900         0.0000
-48.261         7.1330         17.900         0.0000
-48.253         -23.855        17.900         0.0000
-48.234         8.9316         17.900         0.0000
-48.206         -20.090        17.900         0.0000
-48.206         10.730         17.900         0.0000
-48.158         -2.6611        17.900         0.0000
-48.094         13.877         17.900         0.0000
-48.091         28.212         17.900         0.0000
-48.085         -10.225        17.900         0.0000
-48.063         18.706         17.900         0.0000
-47.891         0.95567        17.900         0.0000
-47.850         -8.2475        17.900         0.0000
-47.846         20.612         17.900         0.0000
-47.739         24.352         17.900         0.0000
-47.615         -6.2697        17.900         0.0000
-47.484         -29.395        17.900         0.0000
-47.415         2.5335         17.900         0.0000
-47.388         -25.949        17.900         0.0000
-47.379         -4.2920        17.900         0.0000
-47.375         -33.222        17.900         0.0000
-47.348         33.389         17.900         0.0000
-47.341         -22.184        17.900         0.0000
-47.232         -14.861        17.900         0.0000
-47.227         29.720         17.900         0.0000
-47.112         -0.67524       17.900         0.0000
-47.024         -11.772        17.900         0.0000
-46.986         12.378         17.900         0.0000
-46.955         37.353         17.900         0.0000
-46.954         -37.354        17.900         0.0000
-46.939         4.1114         17.900         0.0000
-46.873         15.525         17.900         0.0000
-46.804         22.677         17.900         0.0000
-46.697         26.418         17.900         0.0000
-46.597         -16.466        17.900         0.0000
-46.513         -18.490        17.900         0.0000
-46.476         -24.279        17.900         0.0000
-46.430         -20.514        17.900         0.0000
-46.417         -30.891        17.900         0.0000
-46.364         31.227         17.900         0.0000
-46.333         -2.3061        17.900         0.0000
-46.320         -27.445        17.900         0.0000
-46.304         17.190         17.900         0.0000
-46.184         -9.6012        17.900         0.0000
-46.160         6.3801         17.900         0.0000
-46.133         8.1787         17.900         0.0000
-46.105         9.9773         17.900         0.0000
-46.087         19.096         17.900         0.0000
-46.065         1.3106         17.900         0.0000
-46.031         -35.048        17.900         0.0000
-46.005         35.216         17.900         0.0000
-45.964         -13.319        17.900         0.0000
-45.948         -7.6235        17.900         0.0000
-45.869         21.002         17.900         0.0000
-45.833         27.925         17.900         0.0000
-45.765         14.027         17.900         0.0000
-45.762         24.743         17.900         0.0000
-45.713         -5.6457        17.900         0.0000
-45.589         2.8885         17.900         0.0000
-45.565         -22.609        17.900         0.0000
-45.509         39.101         17.900         0.0000
-45.509         -39.102        17.900         0.0000
-45.286         -0.32032       17.900         0.0000
-45.253         -28.940        17.900         0.0000
-45.226         -3.5097        17.900         0.0000
-45.154         -25.544        17.900         0.0000
-45.123         -11.148        17.900         0.0000
-45.109         -32.742        17.900         0.0000
-45.055         33.078         17.900         0.0000
-44.969         29.433         17.900         0.0000
-44.904         -14.866        17.900         0.0000
-44.885         11.625         17.900         0.0000
-44.827         23.068         17.900         0.0000
-44.820         -16.890        17.900         0.0000
-44.811         5.1571         17.900         0.0000
-44.762         -36.888        17.900         0.0000
-44.737         -18.914        17.900         0.0000
-44.654         -20.938        17.900         0.0000
-44.549         36.951         17.900         0.0000
-44.545         15.675         17.900         0.0000
-44.472         26.108         17.900         0.0000
-44.327         17.581         17.900         0.0000
-44.282         -8.9772        17.900         0.0000
-44.243         -23.873        17.900         0.0000
-44.240         1.6655         17.900         0.0000
-44.186         -30.436        17.900         0.0000
-44.179         -1.5238        17.900         0.0000
-44.110         19.487         17.900         0.0000
-44.106         30.941         17.900         0.0000
-44.087         -27.039        17.900         0.0000
-44.063         -12.695        17.900         0.0000
-44.047         -6.9994        17.900         0.0000
-44.032         7.4258         17.900         0.0000
-44.005         9.2244         17.900         0.0000
-44.000         40.792         17.900         0.0000
-43.999         -40.793        17.900         0.0000
-43.892         21.393         17.900         0.0000
-43.840         -34.583        17.900         0.0000
-43.664         13.274         17.900         0.0000
-43.608         27.616         17.900         0.0000
-43.599         34.813         17.900         0.0000
-43.560         -4.8634        17.900         0.0000
-43.537         24.433         17.900         0.0000
-43.461         3.9342         17.900         0.0000
-43.332         -22.203        17.900         0.0000
-43.285         -38.608        17.900         0.0000
-43.222         -10.524        17.900         0.0000
-43.133         0.46199        17.900         0.0000
-43.072         -2.7274        17.900         0.0000
-43.071         38.670         17.900         0.0000
-43.020         -28.535        17.900         0.0000
-42.966         -15.816        17.900         0.0000
-42.921         -25.138        17.900         0.0000
-42.917         -32.277        17.900         0.0000
-42.883         -17.840        17.900         0.0000
-42.799         -19.864        17.900         0.0000
-42.784         10.873         17.900         0.0000
-42.755         -13.792        17.900         0.0000
-42.744         29.124         17.900         0.0000
-42.683         6.2028         17.900         0.0000
-42.649         32.676         17.900         0.0000
-42.638         16.827         17.900         0.0000
-42.602         22.758         17.900         0.0000
-42.571         -36.423        17.900         0.0000
-42.506         15.174         17.900         0.0000
-42.427         42.426         17.900         0.0000
-42.426         -42.427        17.900         0.0000
-42.421         18.733         17.900         0.0000
-42.400         -30.387        17.900         0.0000
-42.381         -8.3532        17.900         0.0000
-42.247         25.799         17.900         0.0000
-42.203         20.639         17.900         0.0000
-42.153         30.893         17.900         0.0000
-42.142         36.548         17.900         0.0000
-42.066         2.3989         17.900         0.0000
-42.026         -0.74154       17.900         0.0000
-42.010         -23.468        17.900         0.0000
-41.915         -11.621        17.900         0.0000
-41.904         8.4714         17.900         0.0000
-41.894         -6.2171        17.900         0.0000
-41.854         -26.634        17.900         0.0000
-41.744         -40.270        17.900         0.0000
-41.648         -34.117        17.900         0.0000
-41.626         12.773         17.900         0.0000
-41.530         40.333         17.900         0.0000
-41.477         -21.129        17.900         0.0000
-41.406         -4.0811        17.900         0.0000
-41.383         27.307         17.900         0.0000
-41.312         24.124         17.900         0.0000
-41.287         4.6675         17.900         0.0000
-41.234         -28.486        17.900         0.0000
-41.193         34.411         17.900         0.0000
-41.131         -32.228        17.900         0.0000
-41.074         -9.4505        17.900         0.0000
-41.061         -38.114        17.900         0.0000
-41.028         -16.766        17.900         0.0000
-40.958         1.1954         17.900         0.0000
-40.945         -18.790        17.900         0.0000
-40.919         -1.9451        17.900         0.0000
-40.913         22.005         17.900         0.0000
-40.817         -14.742        17.900         0.0000
-40.793         43.999         17.900         0.0000
-40.792         -44.000        17.900         0.0000
-40.792         29.076         17.900         0.0000
-40.746         10.372         17.900         0.0000
-40.732         17.980         17.900         0.0000
-40.696         32.628         17.900         0.0000
-40.688         -24.733        17.900         0.0000
-40.633         38.239         17.900         0.0000
-40.613         -30.339        17.900         0.0000
-40.607         -12.719        17.900         0.0000
-40.600         16.327         17.900         0.0000
-40.514         19.886         17.900         0.0000
-40.508         6.9362         17.900         0.0000
-40.468         14.674         17.900         0.0000
-40.408         -41.504        17.900         0.0000
-40.379         -35.958        17.900         0.0000
-40.220         41.633         17.900         0.0000
-40.200         30.845         17.900         0.0000
-40.185         -7.3387        17.900         0.0000
-40.155         -22.394        17.900         0.0000
-40.068         -26.585        17.900         0.0000
-40.022         25.490         17.900         0.0000
-39.891         3.1323         17.900         0.0000
-39.862         -34.068        17.900         0.0000
-39.851         -0.0081500     17.900         0.0000
-39.766         -10.548        17.900         0.0000
-39.736         36.146         17.900         0.0000
-39.725         -39.348        17.900         0.0000
-39.698         -5.2026        17.900         0.0000
-39.623         23.371         17.900         0.0000
-39.623         -20.055        17.900         0.0000
-39.588         12.273         17.900         0.0000
-39.447         -28.438        17.900         0.0000
-39.430         27.259         17.900         0.0000
-39.344         -32.179        17.900         0.0000
-39.323         39.540         17.900         0.0000
-39.240         34.363         17.900         0.0000
-39.237         8.8051         17.900         0.0000
-39.224         21.252         17.900         0.0000
-39.210         -3.0666        17.900         0.0000
-39.113         5.4009         17.900         0.0000
-39.102         45.509         17.900         0.0000
-39.101         -45.509        17.900         0.0000
-39.090         -17.716        17.900         0.0000
-39.043         -37.191        17.900         0.0000
-39.010         -1.4121        17.900         0.0000
-38.880         -15.693        17.900         0.0000
-38.878         -8.4360        17.900         0.0000
-38.839         29.028         17.900         0.0000
-38.832         -23.657        17.900         0.0000
-38.827         -30.290        17.900         0.0000
-38.826         19.133         17.900         0.0000
-38.784         1.9288         17.900         0.0000
-38.745         -43.045        17.900         0.0000
-38.743         32.580         17.900         0.0000
-38.694         17.480         17.900         0.0000
-38.669         -13.669        17.900         0.0000
-38.587         -25.293        17.900         0.0000
-38.562         15.827         17.900         0.0000
-38.557         43.175         17.900         0.0000
-38.459         -11.645        17.900         0.0000
-38.430         14.173         17.900         0.0000
-38.426         37.447         17.900         0.0000
-38.401         -35.003        17.900         0.0000
-38.389         -40.581        17.900         0.0000
-38.300         -21.318        17.900         0.0000
-38.247         30.798         17.900         0.0000
-38.191         24.507         17.900         0.0000
-38.079         10.706         17.900         0.0000
-38.013         40.841         17.900         0.0000
-37.989         -6.3242        17.900         0.0000
-37.967         -27.145        17.900         0.0000
-37.943         0.52482        17.900         0.0000
-37.884         -33.113        17.900         0.0000
-37.865         26.173         17.900         0.0000
-37.841         7.2698         17.900         0.0000
-37.792         22.388         17.900         0.0000
-37.767         -18.979        17.900         0.0000
-37.717         3.8657         17.900         0.0000
-37.707         -38.425        17.900         0.0000
-37.592         35.371         17.900         0.0000
-37.570         -9.5334        17.900         0.0000
-37.501         -4.1882        17.900         0.0000
-37.393         20.269         17.900         0.0000
-37.367         -31.224        17.900         0.0000
-37.354         46.954         17.900         0.0000
-37.353         -46.955        17.900         0.0000
-37.346         -28.997        17.900         0.0000
-37.301         -2.5336        17.900         0.0000
-37.274         27.943         17.900         0.0000
-37.116         38.747         17.900         0.0000
-37.102         -0.87912       17.900         0.0000
-37.096         33.589         17.900         0.0000
-37.065         -36.236        17.900         0.0000
-37.026         -44.523        17.900         0.0000
-36.977         -22.581        17.900         0.0000
-36.921         12.606         17.900         0.0000
-36.876         2.4617         17.900         0.0000
-36.838         44.652         17.900         0.0000
-36.761         -16.919        17.900         0.0000
-36.731         -24.217        17.900         0.0000
-36.698         -42.091        17.900         0.0000
-36.682         29.712         17.900         0.0000
-36.681         -7.4215        17.900         0.0000
-36.631         18.459         17.900         0.0000
-36.599         31.806         17.900         0.0000
-36.570         9.1388         17.900         0.0000
-36.551         -14.896        17.900         0.0000
-36.547         -10.827        17.900         0.0000
-36.499         16.805         17.900         0.0000
-36.486         -25.852        17.900         0.0000
-36.445         5.7346         17.900         0.0000
-36.444         -20.242        17.900         0.0000
-36.424         -34.048        17.900         0.0000
-36.371         -39.658        17.900         0.0000
-36.367         15.152         17.900         0.0000
-36.359         23.525         17.900         0.0000
-36.341         -12.872        17.900         0.0000
-36.322         42.350         17.900         0.0000
-36.282         36.672         17.900         0.0000
-36.034         1.0578         17.900         0.0000
-36.034         25.191         17.900         0.0000
-35.960         21.406         17.900         0.0000
-35.906         -32.158        17.900         0.0000
-35.886         -29.931        17.900         0.0000
-35.866         -27.704        17.900         0.0000
-35.806         40.048         17.900         0.0000
-35.793         -5.3097        17.900         0.0000
-35.729         -37.470        17.900         0.0000
-35.709         26.857         17.900         0.0000
-35.683         3.6136         17.900         0.0000
-35.658         -8.7153        17.900         0.0000
-35.593         -3.6552        17.900         0.0000
-35.552         48.332         17.900         0.0000
-35.551         -48.333        17.900         0.0000
-35.448         34.597         17.900         0.0000
-35.438         -18.182        17.900         0.0000
-35.412         11.039         17.900         0.0000
-35.393         -2.0007        17.900         0.0000
-35.298         -46.004        17.900         0.0000
-35.199         19.595         17.900         0.0000
-35.193         -0.34615       17.900         0.0000
-35.174         7.6035         17.900         0.0000
-35.121         -21.505        17.900         0.0000
-35.117         28.626         17.900         0.0000
-35.088         -35.281        17.900         0.0000
-35.064         45.991         17.900         0.0000
-35.034         30.720         17.900         0.0000
-34.972         37.973         17.900         0.0000
-34.970         -43.572        17.900         0.0000
-34.952         32.814         17.900         0.0000
-34.876         -23.140        17.900         0.0000
-34.858         13.585         17.900         0.0000
-34.842         2.2096         17.900         0.0000
-34.769         -6.6035        17.900         0.0000
-34.643         -41.140        17.900         0.0000
-34.635         -10.009        17.900         0.0000
-34.631         -24.776        17.900         0.0000
-34.589         -39.157        17.900         0.0000
-34.549         43.689         17.900         0.0000
-34.528         22.543         17.900         0.0000
-34.446         -33.092        17.900         0.0000
-34.437         17.784         17.900         0.0000
-34.432         -16.122        17.900         0.0000
-34.429         -12.054        17.900         0.0000
-34.426         -30.865        17.900         0.0000
-34.412         5.4825         17.900         0.0000
-34.406         -28.638        17.900         0.0000
-34.385         -26.411        17.900         0.0000
-34.305         16.131         17.900         0.0000
-34.222         -14.099        17.900         0.0000
-34.203         24.209         17.900         0.0000
-34.138         35.898         17.900         0.0000
-34.115         -19.445        17.900         0.0000
-34.033         41.387         17.900         0.0000
-34.001         0.80569        17.900         0.0000
-33.961         39.547         17.900         0.0000
-33.947         -36.968        17.900         0.0000
-33.902         9.4724         17.900         0.0000
-33.877         25.875         17.900         0.0000
-33.766         20.732         17.900         0.0000
-33.746         -7.8973        17.900         0.0000
-33.702         49.641         17.900         0.0000
-33.701         -49.641        17.900         0.0000
-33.650         3.3615         17.900         0.0000
-33.552         27.541         17.900         0.0000
-33.500         -4.5979        17.900         0.0000
-33.471         -47.347        17.900         0.0000
-33.469         29.635         17.900         0.0000
-33.387         31.729         17.900         0.0000
-33.349         12.018         17.900         0.0000
-33.306         -34.779        17.900         0.0000
-33.304         33.823         17.900         0.0000
-33.300         -2.9434        17.900         0.0000
-33.242         -45.053        17.900         0.0000
-33.238         47.334         17.900         0.0000
-33.140         7.3514         17.900         0.0000
-33.127         37.472         17.900         0.0000
-33.110         -17.385        17.900         0.0000
-33.100         -1.2889        17.900         0.0000
-33.004         18.921         17.900         0.0000
-32.988         -21.912        17.900         0.0000
-32.972         -31.681        17.900         0.0000
-32.952         -29.454        17.900         0.0000
-32.931         -27.227        17.900         0.0000
-32.915         -42.621        17.900         0.0000
-32.861         -40.638        17.900         0.0000
-32.809         1.9575         17.900         0.0000
-32.807         -38.655        17.900         0.0000
-32.796         14.564         17.900         0.0000
-32.775         45.028         17.900         0.0000
-32.743         -23.548        17.900         0.0000
-32.723         -9.1911        17.900         0.0000
-32.517         -11.236        17.900         0.0000
-32.498         -25.183        17.900         0.0000
-32.476         -5.8917        17.900         0.0000
-32.379         5.2304         17.900         0.0000
-32.348         22.826         17.900         0.0000
-32.310         -13.280        17.900         0.0000
-32.293         35.396         17.900         0.0000
-32.259         42.726         17.900         0.0000
-32.243         17.110         17.900         0.0000
-32.187         40.886         17.900         0.0000
-32.171         -33.230        17.900         0.0000
-32.165         -36.466        17.900         0.0000
-32.116         39.045         17.900         0.0000
-32.104         -15.325        17.900         0.0000
-32.023         24.492         17.900         0.0000
-31.988         28.276         17.900         0.0000
-31.983         -19.853        17.900         0.0000
-31.965         8.7365         17.900         0.0000
-31.908         -0.13707       17.900         0.0000
-31.906         30.370         17.900         0.0000
-31.891         10.310         17.900         0.0000
-31.823         32.464         17.900         0.0000
-31.801         50.879         17.900         0.0000
-31.800         -50.880        17.900         0.0000
-31.697         26.158         17.900         0.0000
-31.617         3.1094         17.900         0.0000
-31.596         -48.621        17.900         0.0000