% Model:              capacitor_fringing_fields - sc-2-qw.mph
% Version:            COMSOL 5.1.0.136
% Date:               Dec 19 2018, 15:58
% Dimension:          3
% Nodes:              4260
% Expressions:        1
% Description:        Surface charge density
% Length unit:        nm
% x             y              z              es.nD (C/m^2)
-1.1000         0.0000         2.1000         0.012038
-1.1000         0.0000         2.1000         0.012037
-1.1000         0.0000         2.1000         0.012091
-1.1000         0.0000         2.1000         0.011895
-1.0980         0.045601       2.0515         0.012198
-1.0980         0.045601       2.0515         0.012030
-1.0980         -0.045590      2.0514         0.012141
-1.0980         -0.045590      2.0514         0.012136
-1.0976         -5.5077E-20    2.0280         0.012326
-1.0976         0.0000         2.0280         0.012303
-1.0976         -0.071999      2.1000         0.011944
-1.0976         0.071999       2.1000         0.011847
-1.0926         0.11746        2.0515         0.012016
-1.0926         -0.11745       2.0515         0.012078
-1.0924         0.045547       1.9797         0.012428
-1.0924         -0.045536      1.9796         0.012452
-1.0920         0.090945       2.0033         0.012340
-1.0920         0.090945       2.0033         0.012208
-1.0919         -0.090924      2.0032         0.012273
-1.0919         -0.090924      2.0032         0.012268
-1.0906         -1.5191E-17    1.9565         0.012683
-1.0906         0.0000         1.9565         0.012540
-1.0906         0.14354        2.1000         0.011852
-1.0906         -0.14354       2.1000         0.011910
-1.0836         0.16267        2.0034         0.012227
-1.0836         0.16267        2.0034         0.012310
-1.0836         -0.16265       2.0032         0.012249
-1.0836         -0.16265       2.0032         0.012245
-1.0832         0.090837       1.9316         0.012592
-1.0832         0.090837       1.9316         0.012592
-1.0832         -0.090816      1.9315         0.012665
-1.0832         -0.090816      1.9315         0.012609
-1.0826         0.18886        2.0516         0.012139
-1.0826         0.18886        2.0516         0.012055
-1.0826         -0.18885       2.0515         0.012082
-1.0826         -0.18885       2.0515         0.012078
-1.0822         0.045493       1.9083         0.012688
-1.0822         0.045493       1.9083         0.012688
-1.0822         -0.045482      1.9082         0.012850
-1.0822         -0.045482      1.9082         0.012833
-1.0819         0.13603        1.9553         0.012520
-1.0819         0.13603        1.9553         0.012520
-1.0819         0.13603        1.9553         0.012641
-1.0819         0.13603        1.9553         0.012511
-1.0819         0.13603        1.9553         0.012431
-1.0819         -0.13600       1.9551         0.012519
-1.0819         -0.13600       1.9551         0.012520
-1.0819         -0.13600       1.9551         0.012437
-1.0819         -0.13600       1.9551         0.012438
-1.0819         -0.13600       1.9551         0.012437
-1.0789         0.0000         1.8854         0.012989
-1.0789         0.0000         1.8854         0.013076
-1.0789         0.0000         1.8854         0.013115
-1.0789         0.0000         1.8854         0.012990
-1.0789         0.0000         1.8854         0.012810
-1.0789         0.0000         1.8854         0.012810
-1.0789         -0.21461       2.1000         0.011936
-1.0789         -0.21461       2.1000         0.012150
-1.0789         -0.21461       2.1000         0.011934
-1.0789         0.21461        2.1000         0.011997
-1.0789         0.21461        2.1000         0.011910
-1.0789         0.21461        2.1000         0.012346
-1.0720         -0.096681      1.8734         0.012962
-1.0720         0.096709       1.8733         0.012933
-1.0717         -0.14203       1.8969         0.012795
-1.0717         -0.14203       1.8969         0.012797
-1.0717         0.14207        1.8969         0.012851
-1.0717         0.14207        1.8969         0.012883
-1.0711         0.22446        1.9887         0.012321
-1.0711         -0.22447       1.9886         0.012395
-1.0702         0.19785        1.9405         0.012510
-1.0702         0.19785        1.9405         0.012669
-1.0702         -0.19784       1.9404         0.012586
-1.0702         -0.19784       1.9404         0.012580
-1.0700         -0.051187      1.8502         0.013162
-1.0700         -0.051187      1.8502         0.013168
-1.0700         0.051203       1.8501         0.013201
-1.0700         0.051203       1.8501         0.013040
-1.0692         0.25063        2.0371         0.012163
-1.0692         0.25063        2.0371         0.012431
-1.0692         -0.25065       2.0371         0.012224
-1.0692         -0.25065       2.0371         0.012296
-1.0625         -6.3079E-20    1.8152         0.013365
-1.0625         0.0000         1.8152         0.013368
-1.0625         -0.28476       2.1000         0.012008
-1.0625         0.28476        2.1000         0.012114
-1.0588         -0.20375       1.8823         0.012874
-1.0588         0.20376        1.8822         0.012927
-1.0584         -0.14763       1.8394         0.013109
-1.0584         -0.14763       1.8394         0.013112
-1.0584         0.14767        1.8392         0.013244
-1.0584         0.14767        1.8392         0.013151
-1.0578         -0.10212       1.8159         0.013297
-1.0578         -0.10212       1.8159         0.013380
-1.0577         0.10215        1.8157         0.013336
-1.0577         0.10215        1.8157         0.013469
-1.0549         0.25887        1.9263         0.012550
-1.0549         0.25887        1.9263         0.012746
-1.0549         0.28546        1.9747         0.012374
-1.0549         0.28546        1.9747         0.012560
-1.0549         -0.28549       1.9746         0.012479
-1.0549         -0.28549       1.9746         0.012619
-1.0549         -0.25889       1.9262         0.012689
-1.0549         -0.25889       1.9262         0.012815
-1.0514         -0.051185      1.7806         0.013564
-1.0513         0.051201       1.7805         0.013612
-1.0504         0.32029        2.0372         0.012238
-1.0504         -0.32031       2.0371         0.012184
-1.0443         -0.20923       1.8248         0.013425
-1.0443         -0.20923       1.8248         0.013208
-1.0442         0.20925        1.8246         0.013211
-1.0442         0.20925        1.8246         0.013212
-1.0422         -0.26468       1.8682         0.013052
-1.0422         -0.26468       1.8682         0.013003
-1.0422         0.26466        1.8681         0.013021
-1.0422         0.26466        1.8681         0.013020
-1.0420         -0.15280       1.7825         0.013905
-1.0420         -0.15280       1.7825         0.013646
-1.0420         -0.15280       1.7825         0.013744
-1.0420         -0.15280       1.7825         0.013644
-1.0420         -0.15280       1.7825         0.013466
-1.0420         -0.15280       1.7825         0.013467
-1.0419         0.15285        1.7821         0.013797
-1.0419         0.15285        1.7821         0.013704
-1.0419         0.15285        1.7821         0.013447
-1.0419         0.15285        1.7821         0.013448
-1.0419         0.15285        1.7821         0.013623
-1.0419         0.15285        1.7821         0.013623
-1.0416         -1.7090E-17    1.7465         0.013788
-1.0416         0.0000         1.7465         0.013791
-1.0416         -0.35355       2.1000         0.011935
-1.0416         0.35355        2.1000         0.011967
-1.0367         -0.10212       1.7468         0.013982
-1.0367         -0.10212       1.7468         0.013809
-1.0367         0.10215        1.7466         0.013862
-1.0367         0.10215        1.7466         0.013915
-1.0359         0.31910        1.9127         0.012871
-1.0359         0.31910        1.9127         0.012634
-1.0359         0.31910        1.9127         0.012872
-1.0359         0.31910        1.9127         0.012815
-1.0359         0.31910        1.9127         0.012735
-1.0359         0.31910        1.9127         0.012734
-1.0359         0.31910        1.9127         0.012733
-1.0359         -0.31915       1.9126         0.012772
-1.0359         -0.31915       1.9126         0.013179
-1.0359         -0.31915       1.9126         0.012707
-1.0359         -0.31915       1.9126         0.012773
-1.0359         -0.31915       1.9126         0.012847
-1.0359         -0.31915       1.9126         0.013138
-1.0359         -0.31915       1.9126         0.012707
-1.0337         0.35463        1.9747         0.012403
-1.0337         0.35463        1.9747         0.012394
-1.0337         -0.35466       1.9747         0.012397
-1.0337         -0.35466       1.9747         0.012398
-1.0282         -0.051183      1.7123         0.014267
-1.0282         -0.051183      1.7123         0.014014
-1.0281         0.051198       1.7122         0.014151
-1.0281         0.051198       1.7122         0.014069
-1.0272         0.38858        2.0372         0.012117
-1.0272         0.38858        2.0372         0.012125
-1.0271         -0.38860       2.0371         0.012138
-1.0271         -0.38860       2.0371         0.012139
-1.0226         -0.26763       1.7955         0.013517
-1.0226         0.26759        1.7955         0.013469
-1.0221         -0.21140       1.7527         0.013783
-1.0221         -0.21140       1.7527         0.013959
-1.0220         0.21139        1.7525         0.013849
-1.0220         0.21139        1.7525         0.013686
-1.0188         0.32281        1.8395         0.013296
-1.0188         0.32281        1.8395         0.013191
-1.0188         -0.32288       1.8394         0.013177
-1.0188         -0.32288       1.8394         0.013174
-1.0170         -0.16309       1.7139         0.014141
-1.0170         -0.16309       1.7139         0.014213
-1.0170         0.16210        1.7135         0.014085
-1.0170         0.16210        1.7135         0.014082
-1.0163         0.0000         1.6790         0.014513
-1.0163         0.0000         1.6790         0.014602
-1.0163         0.0000         1.6790         0.014263
-1.0163         0.0000         1.6790         0.014263
-1.0163         0.0000         1.6790         0.014492
-1.0163         0.0000         1.6790         0.014512
-1.0163         -0.42096       2.1000         0.011873
-1.0163         -0.42096       2.1000         0.011928
-1.0163         -0.42096       2.1000         0.011928
-1.0163         0.42096        2.1000         0.011898
-1.0163         0.42096        2.1000         0.011897
-1.0163         0.42096        2.1000         0.011882
-1.0140         0.38787        1.9230         0.012611
-1.0140         0.38787        1.9230         0.012604
-1.0140         -0.38787       1.9229         0.012854
-1.0140         -0.38787       1.9229         0.012670
-1.0106         0.36921        1.8712         0.012974
-1.0106         0.36921        1.8712         0.012954
-1.0106         -0.36924       1.8711         0.012980
-1.0106         -0.36924       1.8711         0.013222
-1.0099         -0.11210       1.6788         0.014468
-1.0099         0.11109        1.6785         0.014348
-1.0091         0.42249        1.9855         0.012304
-1.0091         -0.42248       1.9854         0.012385
-0.99992        -0.45551       2.0483         0.012052
-0.99992        -0.45551       2.0483         0.012148
-0.99991        0.45554        2.0483         0.012063
-0.99991        0.45554        2.0483         0.012101
-0.99955        -0.060859      1.6448         0.014771
-0.99955        -0.060859      1.6448         0.014899
-0.99954        0.059835       1.6447         0.014666
-0.99954        0.059835       1.6447         0.014811
-0.99823        -0.26906       1.7243         0.014069
-0.99823        -0.26906       1.7243         0.013972
-0.99820        0.26900        1.7242         0.014146
-0.99820        0.26900        1.7242         0.014007
-0.99698        0.32500        1.7677         0.013633
-0.99698        0.32500        1.7677         0.013809
-0.99693        -0.32509       1.7677         0.013659
-0.99693        -0.32509       1.7677         0.013662
-0.99448        0.22022        1.6847         0.014358
-0.99440        -0.22125       1.6850         0.014314
-0.99043        0.37189        1.7988         0.013388
-0.99039        -0.37194       1.7987         0.013436
-0.98774        -0.45475       1.9340         0.012698
-0.98774        -0.45475       1.9340         0.012636
-0.98774        0.45478        1.9340         0.012541
-0.98774        0.45478        1.9340         0.012535
-0.98762        0.17061        1.6467         0.014608
-0.98762        0.17061        1.6467         0.014606
-0.98752        -0.17262       1.6472         0.014717
-0.98752        -0.17262       1.6472         0.014720
-0.98653        -9.6772E-20    1.6134         0.015159
-0.98653        0.0000         1.6134         0.015153
-0.98653        -0.48657       2.1000         0.011860
-0.98653        0.48657        2.1000         0.011815
-0.98572        0.43687        1.8821         0.012863
-0.98571        -0.43686       1.8820         0.012951
-0.98133        0.41774        1.8308         0.013184
-0.98133        0.41774        1.8308         0.013251
-0.98131        -0.41774       1.8307         0.013311
-0.98131        -0.41774       1.8307         0.013253
-0.98020        -0.48845       1.9969         0.012282
-0.98020        -0.48845       1.9969         0.012433
-0.98018        0.48850        1.9969         0.012272
-0.98018        0.48850        1.9969         0.012388
-0.97870        0.11929        1.6122         0.015183
-0.97870        0.11929        1.6122         0.014901
-0.97864        -0.12132       1.6126         0.014993
-0.97864        -0.12132       1.6126         0.015398
-0.97047        0.32568        1.6974         0.014387
-0.97047        0.32568        1.6974         0.014422
-0.97047        0.32568        1.6974         0.014465
-0.97047        0.32568        1.6974         0.014519
-0.97047        0.32568        1.6974         0.014387
-0.97047        0.32568        1.6974         0.014146
-0.97042        -0.32579       1.6973         0.014232
-0.97042        -0.32579       1.6973         0.014376
-0.97042        -0.32579       1.6973         0.014376
-0.97042        -0.32579       1.6973         0.014237
-0.97042        -0.32579       1.6973         0.014238
-0.97042        -0.32579       1.6973         0.014216
-0.96803        0.27740        1.6573         0.014816
-0.96803        0.27740        1.6573         0.014705
-0.96789        -0.52009       2.0483         0.012072
-0.96788        0.52011        2.0483         0.012060
-0.96783        -0.27846       1.6576         0.014762
-0.96783        -0.27846       1.6576         0.014542
-0.96751        -0.060846      1.5802         0.015605
-0.96749        0.059821       1.5800         0.015490
-0.96553        0.37306        1.7277         0.013869
-0.96553        0.37306        1.7277         0.014107
-0.96549        -0.37312       1.7277         0.013935
-0.96549        -0.37312       1.7277         0.013980
-0.96246        0.22829        1.6188         0.015215
-0.96246        0.22829        1.6188         0.014931
-0.96220        -0.23033       1.6193         0.015205
-0.96220        -0.23033       1.6193         0.014930
-0.95806        0.41939        1.7591         0.013861
-0.95806        0.41939        1.7591         0.013637
-0.95802        -0.41941       1.7590         0.013684
-0.95802        -0.41941       1.7590         0.013767
-0.95711        -0.51977       1.9458         0.012509
-0.95711        -0.51977       1.9458         0.012510
-0.95711        -0.51977       1.9458         0.012510
-0.95711        -0.51977       1.9458         0.012564
-0.95711        -0.51977       1.9458         0.012510
-0.95711        -0.51977       1.9458         0.012789
-0.95707        0.51985        1.9458         0.012592
-0.95707        0.51985        1.9458         0.012595
-0.95707        0.51985        1.9458         0.012525
-0.95707        0.51985        1.9458         0.012525
-0.95707        0.51985        1.9458         0.012595
-0.95707        0.51985        1.9458         0.012751
-0.95645        -0.50263       1.8937         0.012780
-0.95645        -0.50263       1.8937         0.012778
-0.95643        0.50268        1.8937         0.012831
-0.95643        0.50268        1.8937         0.012826
-0.95375        0.17836        1.5818         0.015664
-0.95375        0.17836        1.5818         0.015200
-0.95375        0.17836        1.5818         0.015554
-0.95375        0.17836        1.5818         0.015199
-0.95375        0.17836        1.5818         0.015554
-0.95375        0.17836        1.5818         0.015633
-0.95352        -0.18139       1.5824         0.015710
-0.95352        -0.18139       1.5824         0.016028
-0.95352        -0.18139       1.5824         0.015711
-0.95352        -0.18139       1.5824         0.015730
-0.95352        -0.18139       1.5824         0.015383
-0.95352        -0.18139       1.5824         0.015272
-0.95343        -0.48426       1.8422         0.013093
-0.95343        -0.48426       1.8422         0.013090
-0.95343        0.48429        1.8422         0.013193
-0.95343        0.48429        1.8422         0.013106
-0.95265        -2.0327E-17    1.5500         0.015856
-0.95265        0.0000         1.5500         0.015850
-0.95265        -0.54996       2.1000         0.011902
-0.95265        0.54996        2.1000         0.011797
-0.94805        0.46468        1.7913         0.013648
-0.94805        0.46468        1.7913         0.013446
-0.94805        0.46468        1.7913         0.013549
-0.94805        0.46468        1.7913         0.013419
-0.94805        0.46468        1.7913         0.013633
-0.94803        -0.46466       1.7913         0.013734
-0.94803        -0.46466       1.7913         0.013475
-0.94803        -0.46466       1.7913         0.013450
-0.94803        -0.46466       1.7913         0.013595
-0.94803        -0.46466       1.7913         0.013450
-0.94587        -0.55200       1.9969         0.012367
-0.94587        -0.55200       1.9969         0.012335
-0.94585        0.55205        1.9970         0.012374
-0.94585        0.55205        1.9970         0.012320
-0.94433        0.11926        1.5486         0.016027
-0.94433        0.11926        1.5486         0.015904
-0.94428        -0.12130       1.5490         0.016173
-0.94428        -0.12130       1.5490         0.016150
-0.94010        0.38355        1.6768         0.014478
-0.94010        0.38355        1.6768         0.014477
-0.94004        -0.38382       1.6769         0.014318
-0.94004        -0.38382       1.6769         0.014558
-0.93397        0.34267        1.6307         0.014994
-0.93397        0.34267        1.6307         0.015059
-0.93394        -0.34352       1.6312         0.014992
-0.93394        -0.34352       1.6312         0.014996
-0.93336        0.43027        1.7080         0.014229
-0.93330        -0.43049       1.7081         0.014049
-0.93171        -0.58245       2.0484         0.012242
-0.93171        -0.58245       2.0484         0.012147
-0.93170        0.58247        2.0484         0.012091
-0.93170        0.58247        2.0484         0.012067
-0.93165        0.54860        1.8973         0.012772
-0.93165        0.54860        1.8973         0.012827
-0.93131        -0.060833      1.5178         0.016367
-0.93131        -0.060833      1.5178         0.016624
-0.93128        0.059807       1.5177         0.016630
-0.93128        0.059807       1.5177         0.016229
-0.93119        -0.54902       1.8964         0.012777
-0.93119        -0.54902       1.8964         0.012780
-0.92995        0.29379        1.5912         0.015420
-0.92982        -0.29561       1.5921         0.015399
-0.92940        0.53053        1.8456         0.013031
-0.92890        -0.53095       1.8446         0.013082
-0.92478        0.51124        1.7944         0.013485
-0.92478        0.51124        1.7944         0.013327
-0.92423        -0.51166       1.7934         0.013618
-0.92423        -0.51166       1.7934         0.013434
-0.92408        0.47594        1.7401         0.013873
-0.92408        0.47594        1.7401         0.014014
-0.92402        -0.47612       1.7402         0.013823
-0.92402        -0.47612       1.7402         0.014045
-0.92381        0.57650        1.9444         0.012522
-0.92381        0.57650        1.9444         0.012518
-0.92280        0.24409        1.5533         0.015831
-0.92280        0.24409        1.5533         0.015915
-0.92266        -0.57845       1.9448         0.012563
-0.92266        -0.57845       1.9448         0.012570
-0.92265        -0.24690       1.5543         0.015865
-0.92265        -0.24690       1.5543         0.015875
-0.91491        0.18858        1.5192         0.016449
-0.91491        0.18858        1.5192         0.016446
-0.91462        0.0000         1.4889         0.016614
-0.91462        0.0000         1.4889         0.017160
-0.91462        0.0000         1.4889         0.017160
-0.91462        0.0000         1.4889         0.016928
-0.91462        0.0000         1.4889         0.017383
-0.91462        0.0000         1.4889         0.016613
-0.91462        -0.61113       2.1000         0.012130
-0.91462        -0.61113       2.1000         0.011998
-0.91462        -0.61113       2.1000         0.011920
-0.91462        0.61113        2.1000         0.011906
-0.91462        0.61113        2.1000         0.012021
-0.91462        0.61113        2.1000         0.011825
-0.91420        -0.19200       1.5192         0.016491
-0.91420        -0.19200       1.5192         0.016690
-0.91091        0.60776        1.9958         0.012272
-0.90967        -0.60969       1.9962         0.012445
-0.90616        0.43982        1.6579         0.014622
-0.90616        0.43982        1.6579         0.014622
-0.90608        -0.44025       1.6582         0.014461
-0.90608        -0.44025       1.6582         0.014810
-0.90398        0.12915        1.4867         0.016982
-0.90344        -0.13156       1.4865         0.017089
-0.90333        0.57557        1.8496         0.012987
-0.90333        0.57557        1.8496         0.013113
-0.90228        -0.57642       1.8477         0.013108
-0.90228        -0.57642       1.8477         0.013111
-0.90088        0.39954        1.6114         0.015128
-0.90083        -0.40054       1.6121         0.015227
-0.90005        0.52219        1.7433         0.013820
-0.89947        0.55661        1.7981         0.013453
-0.89947        0.55661        1.7981         0.013267
-0.89940        -0.52277       1.7426         0.013937
-0.89834        -0.55743       1.7963         0.013454
-0.89834        -0.55743       1.7963         0.013541
-0.89761        0.48588        1.6899         0.014229
-0.89761        0.48588        1.6899         0.014404
-0.89753        -0.48626       1.6901         0.014375
-0.89753        -0.48626       1.6901         0.014218
-0.89640        0.60409        1.8962         0.012774
-0.89507        0.63725        2.0475         0.012187
-0.89507        0.63725        2.0475         0.012071
-0.89467        -0.60648       1.8958         0.012884
-0.89374        -0.63915       2.0479         0.012338
-0.89374        -0.63915       2.0479         0.012048
-0.89294        -0.35950       1.5676         0.015666
-0.89294        -0.35950       1.5676         0.015661
-0.89290        0.35789        1.5665         0.015732
-0.89290        0.35789        1.5665         0.015692
-0.88942        0.069356       1.4565         0.017655
-0.88942        0.069356       1.4565         0.017434
-0.88896        -0.070752      1.4560         0.017549
-0.88896        -0.070752      1.4560         0.017540
-0.88733        0.63100        1.9435         0.012492
-0.88733        0.63100        1.9435         0.012489
-0.88730        0.30842        1.5277         0.016416
-0.88730        0.30842        1.5277         0.016066
-0.88728        -0.31102       1.5290         0.016093
-0.88728        -0.31102       1.5290         0.016102
-0.88476        -0.63481       1.9444         0.012690
-0.88476        -0.63481       1.9444         0.012682
-0.88112        0.25368        1.4924         0.016899
-0.88048        -0.25687       1.4928         0.016692
-0.87396        0.56724        1.7473         0.013799
-0.87396        0.56724        1.7473         0.013800
-0.87281        0.53182        1.6933         0.014188
-0.87281        0.53182        1.6933         0.014189
-0.87274        0.66132        1.9952         0.012271
-0.87274        0.66132        1.9952         0.012394
-0.87269        -0.56820       1.7457         0.013869
-0.87269        -0.56820       1.7457         0.013866
-0.87266        -1.4448E-19    1.4303         0.018336
-0.87266        0.0000         1.4303         0.017934
-0.87266        -0.66968       2.1000         0.011861
-0.87266        0.66968        2.1000         0.011904
-0.87211        0.60077        1.8025         0.013453
-0.87211        0.60077        1.8025         0.013460
-0.87211        0.60077        1.8025         0.013453
-0.87211        0.60077        1.8025         0.013460
-0.87211        0.60077        1.8025         0.013240
-0.87211        0.60077        1.8025         0.013460
-0.87208        -0.53256       1.6928         0.014277
-0.87208        -0.53256       1.6928         0.014274
-0.87199        0.19792        1.4593         0.017390
-0.87199        0.19792        1.4593         0.017387
-0.87072        -0.20168       1.4588         0.017423
-0.87072        -0.20168       1.4588         0.017597
-0.87036        -0.60198       1.7998         0.013501
-0.87036        -0.60198       1.7998         0.013508
-0.87036        -0.60198       1.7998         0.013501
-0.87036        -0.60198       1.7998         0.013508
-0.87036        -0.60198       1.7998         0.013414
-0.87036        -0.60198       1.7998         0.013414
-0.87001        -0.66506       1.9961         0.012585
-0.87001        -0.66506       1.9961         0.012214
-0.86864        0.49450        1.6407         0.014822
-0.86864        0.49450        1.6407         0.014806
-0.86864        0.49450        1.6407         0.014806
-0.86864        0.49450        1.6407         0.014822
-0.86864        0.49450        1.6407         0.014622
-0.86864        0.49450        1.6407         0.014622
-0.86853        -0.49507       1.6411         0.014729
-0.86853        -0.49507       1.6411         0.014663
-0.86853        -0.49507       1.6411         0.015138
-0.86853        -0.49507       1.6411         0.014916
-0.86853        -0.49507       1.6411         0.014731
-0.86853        -0.49507       1.6411         0.014729
-0.86610        0.62990        1.8488         0.013082
-0.86610        0.62990        1.8488         0.013185
-0.86422        0.45482        1.5938         0.015317
-0.86422        0.45482        1.5938         0.015319
-0.86413        -0.45597       1.5947         0.015533
-0.86413        -0.45597       1.5947         0.015407
-0.86369        -0.63267       1.8475         0.013125
-0.86369        -0.63267       1.8475         0.013271
-0.85955        0.13814        1.4276         0.017987
-0.85955        0.13814        1.4276         0.018055
-0.85844        -0.14090       1.4268         0.017987
-0.85844        -0.14090       1.4268         0.017978
-0.85794        0.65743        1.8957         0.012940
-0.85794        0.65743        1.8957         0.012766
-0.85709        0.41377        1.5485         0.015912
-0.85709        0.41377        1.5485         0.015906
-0.85709        -0.41552       1.5498         0.015942
-0.85709        -0.41552       1.5498         0.015951
-0.85470        -0.66163       1.8957         0.013061
-0.85470        -0.66163       1.8957         0.012867
-0.85134        0.69458        2.0475         0.012088
-0.84989        -0.69638       2.0479         0.012015
-0.84761        0.68334        1.9432         0.012723
-0.84761        0.68334        1.9432         0.012667
-0.84761        0.68334        1.9432         0.012667
-0.84761        0.68334        1.9432         0.012507
-0.84761        0.68334        1.9432         0.012507
-0.84761        0.68334        1.9432         0.012644
-0.84742        -0.37374       1.5065         0.016396
-0.84742        -0.37374       1.5065         0.016396
-0.84742        -0.37374       1.5065         0.016742
-0.84742        -0.37374       1.5065         0.016397
-0.84742        -0.37374       1.5065         0.016525
-0.84742        -0.37374       1.5065         0.016525
-0.84727        0.37136        1.5048         0.016935
-0.84727        0.37136        1.5048         0.016618
-0.84727        0.37136        1.5048         0.016374
-0.84727        0.37136        1.5048         0.017078
-0.84727        0.37136        1.5048         0.016574
-0.84727        0.37136        1.5048         0.016647
-0.84600        0.58107        1.7042         0.014133
-0.84550        0.61550        1.7590         0.013763
-0.84550        0.61550        1.7590         0.013735
-0.84545        -0.58151       1.7037         0.014160
-0.84520        0.069322       1.3994         0.018507
-0.84470        -0.070712      1.3990         0.018699
-0.84441        -0.61614       1.7574         0.013778
-0.84441        -0.61614       1.7574         0.013722
-0.84356        -0.54501       1.6513         0.014591
-0.84356        -0.54501       1.6513         0.014586
-0.84348        0.54474        1.6508         0.014545
-0.84348        0.54474        1.6508         0.014736
-0.84341        -0.68885       1.9446         0.012874
-0.84341        -0.68885       1.9446         0.012640
-0.84341        -0.68885       1.9446         0.012611
-0.84341        -0.68885       1.9446         0.012875
-0.84341        -0.68885       1.9446         0.012861