% Model:              capacitor_fringing_fields - sc-2-qw.mph
% Version:            COMSOL 5.1.0.136
% Date:               Dec 16 2018, 23:08
% Dimension:          3
% Nodes:              19987
% Expressions:        1
% Description:        Surface charge density
% Length unit:        nm
% x             y              z              es.nD (C/m^2)
-60.000         0.0000         3.4000         0.0000
-59.987         1.2655         3.4000         0.0000
-59.987         -1.2656        3.4000         0.0000
-59.947         2.5302         3.4000         0.0000
-59.947         -2.5304        3.4000         0.0000
-59.880         3.7941         3.4000         0.0000
-59.880         -3.7942        3.4000         0.0000
-59.783         5.1033         3.4000         0.0000
-59.783         -5.1035        3.4000         0.0000
-59.657         6.4096         3.4000         0.0000
-59.657         -6.4099        3.4000         0.0000
-59.502         7.7133         3.4000         0.0000
-59.502         -7.7136        3.4000         0.0000
-59.319         9.0135         3.4000         0.0000
-59.319         -9.0139        3.4000         0.0000
-59.108         10.309         3.4000         0.0000
-59.108         -10.310        3.4000         0.0000
-58.871         0.62258        3.4000         0.0000
-58.868         11.600         3.4000         0.0000
-58.868         -11.601        3.4000         0.0000
-58.861         -0.62655       3.4000         0.0000
-58.844         1.8877         3.4000         0.0000
-58.834         -1.8917        3.4000         0.0000
-58.791         3.1520         3.4000         0.0000
-58.781         -3.1560        3.4000         0.0000
-58.665         4.3522         3.4000         0.0000
-58.600         12.885         3.4000         0.0000
-58.600         -12.886        3.4000         0.0000
-58.554         5.6600         3.4000         0.0000
-58.547         -4.3019        3.4000         0.0000
-58.436         -5.6098        3.4000         0.0000
-58.413         6.9650         3.4000         0.0000
-58.304         14.164         3.4000         0.0000
-58.304         -14.165        3.4000         0.0000
-58.295         -6.9148        3.4000         0.0000
-58.290         -8.2054        3.4000         0.0000
-58.207         8.1709         3.4000         0.0000
-58.093         -9.5034        3.4000         0.0000
-58.010         9.4688         3.4000         0.0000
-57.980         15.437         3.4000         0.0000
-57.980         -15.437        3.4000         0.0000
-57.867         -10.797        3.4000         0.0000
-57.785         10.762         3.4000         0.0000
-57.742         1.2452         3.4000         0.0000
-57.731         -0.0039630     3.4000         0.0000
-57.721         -1.2531        3.4000         0.0000
-57.702         2.5099         3.4000         0.0000
-57.681         -2.5178        3.4000         0.0000
-57.629         16.702         3.4000         0.0000
-57.628         -16.703        3.4000         0.0000
-57.576         3.7101         3.4000         0.0000
-57.571         -11.999        3.4000         0.0000
-57.479         12.005         3.4000         0.0000
-57.451         4.9104         3.4000         0.0000
-57.448         -3.6637        3.4000         0.0000
-57.325         6.2168         3.4000         0.0000
-57.290         -13.281        3.4000         0.0000
-57.249         17.959         3.4000         0.0000
-57.249         -17.959        3.4000         0.0000
-57.215         -4.8096        3.4000         0.0000
-57.197         13.287         3.4000         0.0000
-57.119         7.4226         3.4000         0.0000
-57.089         -6.1161        3.4000         0.0000
-57.083         -7.4067        3.4000         0.0000
-57.078         -8.6973        3.4000         0.0000
-56.980         -14.557        3.4000         0.0000
-56.913         8.6284         3.4000         0.0000
-56.887         14.562         3.4000         0.0000
-56.866         -9.9929        3.4000         0.0000
-56.843         19.207         3.4000         0.0000
-56.842         -19.208        3.4000         0.0000
-56.701         9.9240         3.4000         0.0000
-56.635         -15.662        3.4000         0.0000
-56.615         15.703         3.4000         0.0000
-56.613         1.8677         3.4000         0.0000
-56.602         0.61862        3.4000         0.0000
-56.592         -0.63051       3.4000         0.0000
-56.582         -1.8796        3.4000         0.0000
-56.571         -11.195        3.4000         0.0000
-56.487         3.0680         3.4000         0.0000
-56.409         20.446         3.4000         0.0000
-56.408         -20.447        3.4000         0.0000
-56.396         11.167         3.4000         0.0000
-56.362         4.2683         3.4000         0.0000
-56.348         -3.0255        3.4000         0.0000
-56.275         -12.397        3.4000         0.0000
-56.269         -16.923        3.4000         0.0000
-56.250         16.964         3.4000         0.0000
-56.236         5.4685         3.4000         0.0000
-56.115         -4.1714        3.4000         0.0000
-56.090         12.409         3.4000         0.0000
-56.030         6.6743         3.4000         0.0000
-55.979         -13.676        3.4000         0.0000
-55.948         21.676         3.4000         0.0000
-55.948         -21.676        3.4000         0.0000
-55.882         -5.3173        3.4000         0.0000
-55.876         -18.176        3.4000         0.0000
-55.876         -6.6079        3.4000         0.0000
-55.871         -7.8985        3.4000         0.0000
-55.865         -9.1891        3.4000         0.0000
-55.857         18.216         3.4000         0.0000
-55.824         7.8802         3.4000         0.0000
-55.794         13.688         3.4000         0.0000
-55.783         1.3717         3.4000         0.0000
-55.772         0.12253        3.4000         0.0000
-55.762         -1.1266        3.4000         0.0000
-55.634         -14.782        3.4000         0.0000
-55.618         9.0860         3.4000         0.0000
-55.570         -10.391        3.4000         0.0000
-55.545         2.3903         3.4000         0.0000
-55.529         -19.359        3.4000         0.0000
-55.522         14.829         3.4000         0.0000
-55.460         22.895         3.4000         0.0000
-55.460         -22.896        3.4000         0.0000
-55.419         3.5905         3.4000         0.0000
-55.394         19.416         3.4000         0.0000
-55.312         10.329         3.4000         0.0000
-55.303         -2.0394        3.4000         0.0000
-55.294         4.7908         3.4000         0.0000
-55.290         -15.888        3.4000         0.0000
-55.274         -11.593        3.4000         0.0000
-55.250         15.969         3.4000         0.0000
-55.081         -20.593        3.4000         0.0000
-55.069         -3.1853        3.4000         0.0000
-55.068         5.9064         3.4000         0.0000
-55.007         11.571         3.4000         0.0000
-54.979         -12.795        3.4000         0.0000
-54.953         0.87556        3.4000         0.0000
-54.946         20.650         3.4000         0.0000
-54.946         24.103         3.4000         0.0000
-54.945         -24.104        3.4000         0.0000
-54.943         -0.37357       3.4000         0.0000
-54.910         -17.144        3.4000         0.0000
-54.908         -5.7544        3.4000         0.0000
-54.902         -7.0451        3.4000         0.0000
-54.897         -8.3357        3.4000         0.0000
-54.871         17.226         3.4000         0.0000
-54.862         7.1122         3.4000         0.0000
-54.836         -4.3312        3.4000         0.0000
-54.715         1.8942         3.4000         0.0000
-54.701         12.814         3.4000         0.0000
-54.681         -9.5307        3.4000         0.0000
-54.656         8.3180         3.4000         0.0000
-54.634         -13.901        3.4000         0.0000
-54.607         -21.818        3.4000         0.0000
-54.563         -18.327        3.4000         0.0000
-54.483         -1.2864        3.4000         0.0000
-54.477         2.9128         3.4000         0.0000
-54.472         21.874         3.4000         0.0000
-54.429         13.954         3.4000         0.0000
-54.408         18.425         3.4000         0.0000
-54.405         25.299         3.4000         0.0000
-54.405         -25.300        3.4000         0.0000
-54.386         -10.733        3.4000         0.0000
-54.352         4.1131         3.4000         0.0000
-54.334         9.5813         3.4000         0.0000
-54.289         -15.007        3.4000         0.0000
-54.215         -19.510        3.4000         0.0000
-54.157         15.095         3.4000         0.0000
-54.127         -22.917        3.4000         0.0000
-54.125         5.2286         3.4000         0.0000
-54.123         0.37946        3.4000         0.0000
-54.090         -11.934        3.4000         0.0000
-54.063         23.030         3.4000         0.0000
-54.028         10.824         3.4000         0.0000
-54.024         -2.1993        3.4000         0.0000
-53.945         19.624         3.4000         0.0000
-53.944         -16.113        3.4000         0.0000
-53.934         -6.1916        3.4000         0.0000
-53.928         -7.4822        3.4000         0.0000
-53.899         6.3442         3.4000         0.0000
-53.885         1.3981         3.4000         0.0000
-53.885         16.235         3.4000         0.0000
-53.862         -4.7684        3.4000         0.0000
-53.839         26.484         3.4000         0.0000
-53.838         -26.485        3.4000         0.0000
-53.790         -3.3451        3.4000         0.0000
-53.754         -20.739        3.4000         0.0000
-53.731         -12.897        3.4000         0.0000
-53.722         12.067         3.4000         0.0000
-53.713         -8.6772        3.4000         0.0000
-53.693         7.5501         3.4000         0.0000
-53.663         -0.53338       3.4000         0.0000
-53.647         2.4167         3.4000         0.0000
-53.599         -24.120        3.4000         0.0000
-53.597         -17.295        3.4000         0.0000
-53.536         24.232         3.4000         0.0000
-53.497         -9.8722        3.4000         0.0000
-53.493         13.066         3.4000         0.0000
-53.484         20.853         3.4000         0.0000
-53.422         17.434         3.4000         0.0000
-53.409         3.4353         3.4000         0.0000
-53.386         -14.003        3.4000         0.0000
-53.371         8.8133         3.4000         0.0000
-53.274         -21.839        3.4000         0.0000
-53.249         -18.478        3.4000         0.0000
-53.246         27.655         3.4000         0.0000
-53.246         -27.656        3.4000         0.0000
-53.221         14.206         3.4000         0.0000
-53.204         -1.4462        3.4000         0.0000
-53.201         -11.074        3.4000         0.0000
-53.183         4.5509         3.4000         0.0000
-53.075         22.009         3.4000         0.0000
-53.049         10.077         3.4000         0.0000
-53.046         -25.310        3.4000         0.0000
-53.041         -15.109        3.4000         0.0000
-52.982         25.422         3.4000         0.0000
-52.959         -6.6287        3.4000         0.0000
-52.959         18.633         3.4000         0.0000
-52.957         5.6665         3.4000         0.0000
-52.949         15.347         3.4000         0.0000
-52.901         -19.661        3.4000         0.0000
-52.888         -5.2055        3.4000         0.0000
-52.842         -12.037        3.4000         0.0000
-52.816         -3.7823        3.4000         0.0000
-52.794         -22.939        3.4000         0.0000
-52.780         0.56663        3.4000         0.0000
-52.768         -16.338        3.4000         0.0000
-52.744         -2.3591        3.4000         0.0000
-52.744         -7.8237        3.4000         0.0000
-52.744         11.319         3.4000         0.0000
-52.731         6.7821         3.4000         0.0000
-52.666         23.164         3.4000         0.0000
-52.629         28.814         3.4000         0.0000
-52.628         -28.815        3.4000         0.0000
-52.546         -26.448        3.4000         0.0000
-52.542         1.5852         3.4000         0.0000
-52.541         16.587         3.4000         0.0000
-52.528         -9.0188        3.4000         0.0000
-52.515         12.319         3.4000         0.0000
-52.496         19.833         3.4000         0.0000
-52.483         -12.999        3.4000         0.0000
-52.442         26.475         3.4000         0.0000
-52.421         -20.761        3.4000         0.0000
-52.420         -17.521        3.4000         0.0000
-52.409         8.0453         3.4000         0.0000
-52.320         -0.34622       3.4000         0.0000
-52.313         -10.214        3.4000         0.0000
-52.304         2.6039         3.4000         0.0000
-52.286         13.318         3.4000         0.0000
-52.253         -24.135        3.4000         0.0000
-52.138         -14.105        3.4000         0.0000
-52.125         24.361         3.4000         0.0000
-52.087         20.988         3.4000         0.0000
-52.087         9.3086         3.4000         0.0000
-52.078         17.787         3.4000         0.0000
-52.072         -18.704        3.4000         0.0000
-52.047         -7.0168        3.4000         0.0000
-52.041         3.8824         3.4000         0.0000
-52.014         14.459         3.4000         0.0000
-51.986         29.958         3.4000         0.0000
-51.985         -29.959        3.4000         0.0000
-51.971         -6.1164        3.4000         0.0000
-51.954         -11.176        3.4000         0.0000
-51.941         -21.861        3.4000         0.0000
-51.941         -27.613        3.4000         0.0000
-51.900         -4.6932        3.4000         0.0000
-51.865         -15.335        3.4000         0.0000
-51.861         -1.2591        3.4000         0.0000
-51.837         27.640         3.4000         0.0000
-51.831         -8.2119        3.4000         0.0000
-51.828         -3.2700        3.4000         0.0000
-51.815         4.9980         3.4000         0.0000
-51.765         10.572         3.4000         0.0000
-51.753         -25.274        3.4000         0.0000
-51.689         7.2223         3.4000         0.0000
-51.678         22.144         3.4000         0.0000
-51.636         -19.627        3.4000         0.0000
-51.616         -9.4069        3.4000         0.0000
-51.615         18.986         3.4000         0.0000
-51.606         15.699         3.4000         0.0000
-51.595         -12.139        3.4000         0.0000
-51.591         -16.564        3.4000         0.0000
-51.589         6.1135         3.4000         0.0000
-51.585         25.413         3.4000         0.0000
-51.566         -2.3203        3.4000         0.0000
-51.536         11.571         3.4000         0.0000
-51.461         -22.961        3.4000         0.0000
-51.436         0.75379        3.4000         0.0000
-51.367         8.4855         3.4000         0.0000
-51.318         31.089         3.4000         0.0000
-51.317         -31.090        3.4000         0.0000
-51.310         -28.765        3.4000         0.0000
-51.307         12.571         3.4000         0.0000
-51.276         19.928         3.4000         0.0000
-51.268         23.299         3.4000         0.0000
-51.254         -26.412        3.4000         0.0000
-51.243         -17.747        3.4000         0.0000
-51.235         -13.102        3.4000         0.0000
-51.206         28.791         3.4000         0.0000
-51.198         1.7724         3.4000         0.0000
-51.197         16.940         3.4000         0.0000
-51.156         -20.726        3.4000         0.0000
-51.134         -7.4050        3.4000         0.0000
-51.078         13.570         3.4000         0.0000
-51.059         -6.5045        3.4000         0.0000
-51.045         9.7488         3.4000         0.0000
-51.044         26.466         3.4000         0.0000
-51.037         -10.286        3.4000         0.0000
-50.983         -5.6041        3.4000         0.0000
-50.977         -0.15906       3.4000         0.0000
-50.962         -14.331        3.4000         0.0000
-50.961         -24.099        3.4000         0.0000
-50.936         3.0509         3.4000         0.0000
-50.919         -8.6000        3.4000         0.0000
-50.912         -4.1808        3.4000         0.0000
-50.866         21.084         3.4000         0.0000
-50.807         -18.670        3.4000         0.0000
-50.735         18.139         3.4000         0.0000
-50.728         24.352         3.4000         0.0000
-50.688         -15.561        3.4000         0.0000
-50.683         -1.2203        3.4000         0.0000
-50.682         -29.800        3.4000         0.0000
-50.678         -11.249        3.4000         0.0000
-50.676         -21.826        3.4000         0.0000
-50.673         4.3294         3.4000         0.0000
-50.670         14.811         3.4000         0.0000
-50.650         -3.2311        3.4000         0.0000
-50.648         7.6625         3.4000         0.0000
-50.636         -27.570        3.4000         0.0000
-50.625         32.204         3.4000         0.0000
-50.625         -32.205        3.4000         0.0000
-50.587         29.851         3.4000         0.0000
-50.547         6.5537         3.4000         0.0000
-50.461         -25.237        3.4000         0.0000
-50.457         22.239         3.4000         0.0000
-50.447         5.4450         3.4000         0.0000
-50.437         10.736         3.4000         0.0000
-50.427         27.624         3.4000         0.0000
-50.414         -16.790        3.4000         0.0000
-50.395         19.081         3.4000         0.0000
-50.388         -2.2814        3.4000         0.0000
-50.371         -19.592        3.4000         0.0000
-50.340         -9.4791        3.4000         0.0000
-50.326         8.9257         3.4000         0.0000
-50.319         -12.211        3.4000         0.0000
-50.310         -13.391        3.4000         0.0000
-50.286         -23.060        3.4000         0.0000
-50.262         16.052         3.4000         0.0000
-50.222         -7.7931        3.4000         0.0000
-50.208         11.735         3.4000         0.0000
-50.188         25.404         3.4000         0.0000
-50.146         -6.8926        3.4000         0.0000
-50.093         0.94095        3.4000         0.0000
-50.071         -5.9922        3.4000         0.0000
-50.055         20.023         3.4000         0.0000
-50.043         13.940         3.4000         0.0000
-50.037         -14.620        3.4000         0.0000
-50.007         -28.605        3.4000         0.0000
-50.001         -30.923        3.4000         0.0000
-49.995         -5.0917        3.4000         0.0000
-49.979         12.735         3.4000         0.0000
-49.978         -17.713        3.4000         0.0000
-49.961         -26.376        3.4000         0.0000
-49.942         23.404         3.4000         0.0000
-49.908         33.304         3.4000         0.0000
-49.908         -33.305        3.4000         0.0000
-49.907         30.974         3.4000         0.0000
-49.891         -20.692        3.4000         0.0000
-49.854         17.292         3.4000         0.0000
-49.830         2.2194         3.4000         0.0000
-49.808         28.684         3.4000         0.0000
-49.799         -0.12025       3.4000         0.0000
-49.786         -24.199        3.4000         0.0000
-49.763         -15.850        3.4000         0.0000
-49.762         -10.358        3.4000         0.0000
-49.734         -4.1420        3.4000         0.0000
-49.717         9.9125         3.4000         0.0000
-49.647         26.457         3.4000         0.0000
-49.646         21.179         3.4000         0.0000
-49.643         -8.6722        3.4000         0.0000
-49.634         15.181         3.4000         0.0000
-49.606         8.1027         3.4000         0.0000
-49.567         3.4979         3.4000         0.0000
-49.542         -18.635        3.4000         0.0000
-49.514         18.234         3.4000         0.0000
-49.506         6.9939         3.4000         0.0000
-49.505         -1.1814        3.4000         0.0000
-49.501         -21.926        3.4000         0.0000
-49.472         -3.1923        3.4000         0.0000
-49.405         5.8852         3.4000         0.0000
-49.403         -11.321        3.4000         0.0000
-49.402         24.457         3.4000         0.0000
-49.394         -12.500        3.4000         0.0000
-49.386         -13.680        3.4000         0.0000
-49.378         -29.640        3.4000         0.0000
-49.332         -27.411        3.4000         0.0000
-49.305         4.7764         3.4000         0.0000
-49.297         -32.030        3.4000         0.0000
-49.286         -25.337        3.4000         0.0000
-49.226         16.422         3.4000         0.0000
-49.210         -2.2426        3.4000         0.0000
-49.202         32.081         3.4000         0.0000
-49.189         29.743         3.4000         0.0000
-49.174         19.177         3.4000         0.0000
-49.168         34.388         3.4000         0.0000
-49.167         -34.389        3.4000         0.0000
-49.166         -4.5761        3.4000         0.0000
-49.131         22.344         3.4000         0.0000
-49.112         -14.909        3.4000         0.0000
-49.111         -23.160        3.4000         0.0000
-49.109         10.899         3.4000         0.0000
-49.106         -19.557        3.4000         0.0000
-49.106         -16.662        3.4000         0.0000
-49.065         -9.5514        3.4000         0.0000
-49.028         27.516         3.4000         0.0000
-49.020         -7.4367        3.4000         0.0000
-49.007         14.310         3.4000         0.0000
-48.998         9.0894         3.4000         0.0000
-48.944         -6.5362        3.4000         0.0000
-48.943         13.104         3.4000         0.0000
-48.920         0.37968        3.4000         0.0000
-48.904         -3.6264        3.4000         0.0000
-48.880         11.899         3.4000         0.0000
-48.869         -5.6358        3.4000         0.0000
-48.861         25.509         3.4000         0.0000
-48.834         20.119         3.4000         0.0000
-48.831         1.5677         3.4000         0.0000
-48.761         -26.248        3.4000         0.0000
-48.716         -20.792        3.4000         0.0000
-48.704         -28.446        3.4000         0.0000
-48.686         -30.755        3.4000         0.0000
-48.670         -17.584        3.4000         0.0000
-48.642         -2.6767        3.4000         0.0000
-48.626         -0.68151       3.4000         0.0000
-48.615         23.509         3.4000         0.0000
-48.611         -24.298        3.4000         0.0000
-48.601         -33.073        3.4000         0.0000
-48.599         15.551         3.4000         0.0000
-48.568         2.8462         3.4000         0.0000
-48.522         17.343         3.4000         0.0000
-48.497         30.858         3.4000         0.0000
-48.495         33.133         3.4000         0.0000
-48.486         -10.431        3.4000         0.0000
-48.478         -11.610        3.4000         0.0000
-48.469         -12.789        3.4000         0.0000
-48.461         -13.969        3.4000         0.0000
-48.455         -15.721        3.4000         0.0000
-48.441         -8.3158        3.4000         0.0000
-48.415         26.433         3.4000         0.0000
-48.410         28.576         3.4000         0.0000
-48.403         35.456         3.4000         0.0000
-48.403         -35.457        3.4000         0.0000
-48.389         10.076         3.4000         0.0000
-48.336         -4.0604        3.4000         0.0000
-48.332         -1.7427        3.4000         0.0000
-48.326         -22.026        3.4000         0.0000
-48.325         7.7964         3.4000         0.0000
-48.319         21.284         3.4000         0.0000
-48.305         4.1247         3.4000         0.0000
-48.234         -18.507        3.4000         0.0000
-48.225         6.6877         3.4000         0.0000
-48.182         18.285         3.4000         0.0000
-48.143         -19.782        3.4000         0.0000
-48.132         -27.283        3.4000         0.0000
-48.124         5.5789         3.4000         0.0000
-48.086         -25.209        3.4000         0.0000
-48.075         -29.481        3.4000         0.0000
-48.075         24.562         3.4000         0.0000
-48.075         -3.1107        3.4000         0.0000
-48.039         -5.1201        3.4000         0.0000
-47.991         -31.799        3.4000         0.0000
-47.971         14.680         3.4000         0.0000
-47.935         -23.260        3.4000         0.0000
-47.908         13.474         3.4000         0.0000
-47.895         16.472         3.4000         0.0000
-47.863         -9.1950        3.4000         0.0000
-47.849         -34.149        3.4000         0.0000
-47.844         12.269         3.4000         0.0000
-47.842         19.228         3.4000         0.0000
-47.818         -7.0802        3.4000         0.0000
-47.804         22.449         3.4000         0.0000
-47.804         -14.781        3.4000         0.0000
-47.798         -16.533        3.4000         0.0000
-47.796         27.493         3.4000         0.0000
-47.791         29.636         3.4000         0.0000
-47.789         31.910         3.4000         0.0000
-47.781         11.063         3.4000         0.0000
-47.764         -2.1768        3.4000         0.0000
-47.753         -21.016        3.4000         0.0000
-47.748         -0.18158       3.4000         0.0000
-47.742         34.209         3.4000         0.0000
-47.742         -6.1798        3.4000         0.0000
-47.727         20.344         3.4000         0.0000
-47.717         8.7832         3.4000         0.0000
-47.658         1.0065         3.4000         0.0000
-47.629         25.486         3.4000         0.0000
-47.616         36.506         3.4000         0.0000
-47.615         -36.507        3.4000         0.0000
-47.569         2.1945         3.4000         0.0000
-47.561         -26.120        3.4000         0.0000
-47.507         -3.5448        3.4000         0.0000
-47.504         -28.318        3.4000         0.0000
-47.453         -1.2428        3.4000         0.0000
-47.411         -24.170        3.4000         0.0000
-47.380         -30.524        3.4000         0.0000
-47.371         -10.114        3.4000         0.0000
-47.363         -22.250        3.4000         0.0000
-47.362         -17.456        3.4000         0.0000
-47.306         3.4730         3.4000         0.0000
-47.302         -11.165        3.4000         0.0000
-47.295         -32.842        3.4000         0.0000
-47.294         -12.344        3.4000         0.0000
-47.289         23.614         3.4000         0.0000
-47.285         -13.523        3.4000         0.0000
-47.271         -18.731        3.4000         0.0000
-47.267         15.602         3.4000         0.0000
-47.239         -7.9594        3.4000         0.0000
-47.212         21.509         3.4000         0.0000
-47.210         -4.6045        3.4000         0.0000
-47.196         -2.6108        3.4000         0.0000
-47.190         17.394         3.4000         0.0000
-47.183         26.410         3.4000         0.0000
-47.180         -20.007        3.4000         0.0000
-47.177         28.553         3.4000         0.0000
-47.147         -15.593        3.4000         0.0000
-47.125         4.9272         3.4000         0.0000
-47.108         9.7699         3.4000         0.0000
-47.083         30.688         3.4000         0.0000
-47.081         32.963         3.4000         0.0000
-47.073         -35.208        3.4000         0.0000
-47.044         7.4902         3.4000         0.0000
-46.967         35.268         3.4000         0.0000
-46.944         6.3814         3.4000         0.0000
-46.932         -27.155        3.4000         0.0000
-46.913         -5.6641        3.4000         0.0000
-46.886         -25.081        3.4000         0.0000
-46.886         -1.6768        3.4000         0.0000
-46.851         18.336         3.4000         0.0000
-46.843         24.538         3.4000         0.0000
-46.834         14.409         3.4000         0.0000
-46.815         -29.408        3.4000         0.0000
-46.806         37.540         3.4000         0.0000
-46.805         -37.540        3.4000         0.0000
-46.790         -21.241        3.4000         0.0000
-46.771         13.203         3.4000         0.0000
-46.747         -8.8780        3.4000         0.0000
-46.735         19.453         3.4000         0.0000
-46.707         11.997         3.4000         0.0000
-46.697         22.674         3.4000         0.0000
-46.684         -31.567        3.4000         0.0000
-46.646         -22.954        3.4000         0.0000
-46.628         -14.335        3.4000         0.0000
-46.620         20.569         3.4000         0.0000
-46.616         -6.7238        3.4000         0.0000
-46.575         -0.74285       3.4000         0.0000
-46.564         27.470         3.4000         0.0000
-46.563         16.523         3.4000         0.0000
-46.531         -33.909        3.4000         0.0000
-46.490         -16.405        3.4000         0.0000
-46.486         0.44521        3.4000         0.0000
-46.464         29.660         3.4000         0.0000
-46.436         8.4769         3.4000         0.0000
-46.399         -17.681        3.4000         0.0000
-46.397         25.462         3.4000         0.0000
-46.396         1.6333         3.4000         0.0000
-46.375         31.740         3.4000         0.0000
-46.361         -25.992        3.4000         0.0000
-46.334         -36.180        3.4000         0.0000