% Model:              capacitor_fringing_fields - sc-2-qw.mph
% Version:            COMSOL 5.1.0.136
% Date:               Dec 16 2018, 23:12
% Dimension:          3
% Nodes:              15376
% Expressions:        1
% Description:        Surface charge density
% Length unit:        nm
% x             y              z              es.nD (C/m^2)
-60.000         0.0000         8.9000         0.0000
-59.970         1.8831         8.9000         0.0000
-59.970         -1.8831        8.9000         0.0000
-59.882         3.7634         8.9000         0.0000
-59.882         -3.7635        8.9000         0.0000
-59.734         5.6409         8.9000         0.0000
-59.734         -5.6411        8.9000         0.0000
-59.517         7.6004         8.9000         0.0000
-59.517         -7.6007        8.9000         0.0000
-59.235         9.5507         8.9000         0.0000
-59.235         -9.5511        8.9000         0.0000
-58.889         11.492         8.9000         0.0000
-58.889         -11.492        8.9000         0.0000
-58.479         13.425         8.9000         0.0000
-58.479         -13.426        8.9000         0.0000
-58.338         -0.78441       8.9000         0.0000
-58.279         -2.6661        8.9000         0.0000
-58.161         -4.5451        8.9000         0.0000
-58.069         1.1049         8.9000         0.0000
-58.010         2.9865         8.9000         0.0000
-58.005         15.343         8.9000         0.0000
-58.005         -15.344        8.9000         0.0000
-57.950         -6.2730        8.9000         0.0000
-57.891         4.8654         8.9000         0.0000
-57.823         6.4478         8.9000         0.0000
-57.701         -8.2280        8.9000         0.0000
-57.574         8.4027         8.9000         0.0000
-57.468         17.245         8.9000         0.0000
-57.468         -17.246        8.9000         0.0000
-57.387         -10.174        8.9000         0.0000
-57.260         10.348         8.9000         0.0000
-57.059         -12.015        8.9000         0.0000
-56.867         19.134         8.9000         0.0000
-56.867         -19.134        8.9000         0.0000
-56.702         12.295         8.9000         0.0000
-56.677         -1.5688        8.9000         0.0000
-56.617         -13.941        8.9000         0.0000
-56.588         -3.4492        8.9000         0.0000
-56.407         0.32044        8.9000         0.0000
-56.377         -5.1770        8.9000         0.0000
-56.260         14.220         8.9000         0.0000
-56.205         21.000         8.9000         0.0000
-56.205         -21.001        8.9000         0.0000
-56.166         -6.9048        8.9000         0.0000
-56.137         2.2097         8.9000         0.0000
-56.111         -15.851        8.9000         0.0000
-56.049         4.0900         8.9000         0.0000
-55.980         5.6724         8.9000         0.0000
-55.912         7.2548         8.9000         0.0000
-55.885         -8.8552        8.9000         0.0000
-55.755         16.130         8.9000         0.0000
-55.630         9.2051         8.9000         0.0000
-55.556         -10.697        8.9000         0.0000
-55.520         -17.297        8.9000         0.0000
-55.481         22.844         8.9000         0.0000
-55.481         -22.845        8.9000         0.0000
-55.436         17.633         8.9000         0.0000
-55.228         -12.539        8.9000         0.0000
-55.073         11.151         8.9000         0.0000
-55.015         -2.3532        8.9000         0.0000
-54.888         -19.175        8.9000         0.0000
-54.805         19.510         8.9000         0.0000
-54.804         -4.0811        8.9000         0.0000
-54.754         -14.457        8.9000         0.0000
-54.745         -0.46398       8.9000         0.0000
-54.696         24.664         8.9000         0.0000
-54.696         -24.665        8.9000         0.0000
-54.593         -5.8089        8.9000         0.0000
-54.515         13.098         8.9000         0.0000
-54.476         1.4253         8.9000         0.0000
-54.382         -7.5367        8.9000         0.0000
-54.206         3.3146         8.9000         0.0000
-54.195         -21.030        8.9000         0.0000
-54.163         -15.903        8.9000         0.0000
-54.138         4.8969         8.9000         0.0000
-54.112         21.365         8.9000         0.0000
-54.069         6.4793         8.9000         0.0000
-54.054         -9.3784        8.9000         0.0000
-54.041         15.015         8.9000         0.0000
-54.001         8.0617         8.9000         0.0000
-53.853         26.455         8.9000         0.0000
-53.852         -26.456        8.9000         0.0000
-53.726         -11.220        8.9000         0.0000
-53.723         16.518         8.9000         0.0000
-53.590         -1.4926        8.9000         0.0000
-53.571         -17.348        8.9000         0.0000
-53.560         -22.912        8.9000         0.0000
-53.443         10.008         8.9000         0.0000
-53.405         18.020         8.9000         0.0000
-53.398         -13.062        8.9000         0.0000
-53.352         -3.0764        8.9000         0.0000
-53.320         0.39671        8.9000         0.0000
-53.141         -4.8042        8.9000         0.0000
-53.124         23.185         8.9000         0.0000
-53.050         2.2860         8.9000         0.0000
-53.046         -8.0058        8.9000         0.0000
-52.950         28.219         8.9000         0.0000
-52.949         -28.220        8.9000         0.0000
-52.930         -6.5320        8.9000         0.0000
-52.909         -19.215        8.9000         0.0000
-52.885         11.954         8.9000         0.0000
-52.806         -14.508        8.9000         0.0000
-52.745         -24.717        8.9000         0.0000
-52.742         19.886         8.9000         0.0000
-52.718         -9.8475        8.9000         0.0000
-52.390         -11.689        8.9000         0.0000
-52.328         8.7699         8.9000         0.0000
-52.328         13.900         8.9000         0.0000
-52.315         3.9100         8.9000         0.0000
-52.310         24.991         8.9000         0.0000
-52.274         -21.097        8.9000         0.0000
-52.247         5.4924         8.9000         0.0000
-52.215         -15.954        8.9000         0.0000
-52.178         7.0748         8.9000         0.0000
-52.164         -0.63188       8.9000         0.0000
-52.009         15.403         8.9000         0.0000
-51.992         29.947         8.9000         0.0000
-51.992         -29.948        8.9000         0.0000
-51.926         -2.2157        8.9000         0.0000
-51.895         1.2574         8.9000         0.0000
-51.872         -26.495        8.9000         0.0000
-51.770         10.716         8.9000         0.0000
-51.754         21.706         8.9000         0.0000
-51.710         -8.4749        8.9000         0.0000
-51.691         16.905         8.9000         0.0000
-51.688         -3.7995        8.9000         0.0000
-51.639         -22.978        8.9000         0.0000
-51.623         -17.400        8.9000         0.0000
-51.593         -7.0011        8.9000         0.0000
-51.477         -5.5273        8.9000         0.0000
-51.436         26.769         8.9000         0.0000
-51.418         -12.924        8.9000         0.0000
-51.381         -10.317        8.9000         0.0000
-51.373         18.407         8.9000         0.0000
-51.212         12.662         8.9000         0.0000
-51.159         2.8814         8.9000         0.0000
-51.004         -27.853        8.9000         0.0000
-50.988         -19.281        8.9000         0.0000
-50.979         31.641         8.9000         0.0000
-50.978         -31.642        8.9000         0.0000
-50.853         28.202         8.9000         0.0000
-50.826         -14.370        8.9000         0.0000
-50.795         -24.770        8.9000         0.0000
-50.767         23.527         8.9000         0.0000
-50.739         0.22881        8.9000         0.0000
-50.654         9.4780         8.9000         0.0000
-50.505         7.7829         8.9000         0.0000
-50.501         -1.3550        8.9000         0.0000
-50.424         4.5055         8.9000         0.0000
-50.409         -11.551        8.9000         0.0000
-50.385         20.227         8.9000         0.0000
-50.373         -8.9439        8.9000         0.0000
-50.355         6.0879         8.9000         0.0000
-50.353         -21.163        8.9000         0.0000
-50.287         14.239         8.9000         0.0000
-50.263         -2.9388        8.9000         0.0000
-50.257         -7.4702        8.9000         0.0000
-50.235         -15.816        8.9000         0.0000
-50.141         -5.9964        8.9000         0.0000
-50.130         -17.789        8.9000         0.0000
-50.097         11.424         8.9000         0.0000
-50.025         -4.5227        8.9000         0.0000
-50.018         -29.564        8.9000         0.0000
-50.004         1.8528         8.9000         0.0000
-49.969         15.741         8.9000         0.0000
-49.926         -26.128        8.9000         0.0000
-49.923         25.318         8.9000         0.0000
-49.909         33.303         8.9000         0.0000
-49.909         -33.304        8.9000         0.0000
-49.867         29.913         8.9000         0.0000
-49.718         -23.045        8.9000         0.0000
-49.651         17.243         8.9000         0.0000
-49.512         18.843         8.9000         0.0000
-49.495         -19.671        8.9000         0.0000
-49.437         -12.786        8.9000         0.0000
-49.401         -10.178        8.9000         0.0000
-49.397         22.048         8.9000         0.0000
-49.339         26.751         8.9000         0.0000
-49.268         3.4769         8.9000         0.0000
-49.172         13.000         8.9000         0.0000
-49.058         -27.485        8.9000         0.0000
-48.981         10.186         8.9000         0.0000
-48.976         -31.242        8.9000         0.0000
-48.925         -0.052160      8.9000         0.0000
-48.860         -21.553        8.9000         0.0000
-48.849         -24.403        8.9000         0.0000
-48.846         -14.232        8.9000         0.0000
-48.832         8.4911         8.9000         0.0000
-48.826         31.591         8.9000         0.0000
-48.788         34.924         8.9000         0.0000
-48.788         -34.925        8.9000         0.0000
-48.756         28.184         8.9000         0.0000
-48.742         -16.205        8.9000         0.0000
-48.687         -1.6360        8.9000         0.0000
-48.682         6.7960         8.9000         0.0000
-48.637         -18.179        8.9000         0.0000
-48.593         -8.2280        8.9000         0.0000
-48.533         5.1009         8.9000         0.0000
-48.524         20.664         8.9000         0.0000
-48.477         -6.7542        8.9000         0.0000
-48.449         -3.2198        8.9000         0.0000
-48.429         -11.413        8.9000         0.0000
-48.409         23.868         8.9000         0.0000
-48.361         -5.2805        8.9000         0.0000
-48.247         14.577         8.9000         0.0000
-48.190         1.5719         8.9000         0.0000
-48.056         11.762         8.9000         0.0000
-48.044         -29.180        8.9000         0.0000
-48.002         -20.060        8.9000         0.0000
-47.981         -25.760        8.9000         0.0000
-47.958         -32.970        8.9000         0.0000
-47.928         16.079         8.9000         0.0000
-47.826         25.301         8.9000         0.0000
-47.790         17.679         8.9000         0.0000
-47.743         29.879         8.9000         0.0000
-47.711         -22.688        8.9000         0.0000
-47.651         19.280         8.9000         0.0000
-47.621         -9.4625        8.9000         0.0000
-47.615         36.507         8.9000         0.0000
-47.615         -36.508        8.9000         0.0000
-47.609         33.206         8.9000         0.0000
-47.536         22.484         8.9000         0.0000
-47.457         -12.648        8.9000         0.0000
-47.454         3.1959         8.9000         0.0000
-47.353         -14.621        8.9000         0.0000
-47.314         9.7736         8.9000         0.0000
-47.249         -16.595        8.9000         0.0000
-47.243         26.734         8.9000         0.0000
-47.164         8.0785         8.9000         0.0000
-47.144         -18.568        8.9000         0.0000
-47.131         13.338         8.9000         0.0000
-47.112         -27.118        8.9000         0.0000
-47.112         -0.33313       8.9000         0.0000
-47.026         -30.908        8.9000         0.0000
-47.015         6.3834         8.9000         0.0000
-46.873         -1.9170        8.9000         0.0000
-46.853         -21.196        8.9000         0.0000
-46.842         -24.046        8.9000         0.0000
-46.812         -7.5121        8.9000         0.0000
-46.811         -34.573        8.9000         0.0000
-46.785         -3.9776        8.9000         0.0000
-46.711         4.8176         8.9000         0.0000
-46.696         -6.0383        8.9000         0.0000
-46.663         21.101         8.9000         0.0000
-46.659         28.167         8.9000         0.0000
-46.649         -10.697        8.9000         0.0000
-46.526         31.494         8.9000         0.0000
-46.462         34.808         8.9000         0.0000
-46.390         38.052         8.9000         0.0000
-46.390         -38.052        8.9000         0.0000
-46.389         11.350         8.9000         0.0000
-46.383         23.823         8.9000         0.0000
-46.376         1.2909         8.9000         0.0000
-46.206         14.915         8.9000         0.0000
-46.093         -28.846        8.9000         0.0000
-46.067         16.515         8.9000         0.0000
-46.007         -32.637        8.9000         0.0000
-45.995         -19.704        8.9000         0.0000
-45.974         -25.403        8.9000         0.0000
-45.929         18.116         8.9000         0.0000
-45.840         -8.7466        8.9000         0.0000
-45.800         25.256         8.9000         0.0000
-45.790         19.717         8.9000         0.0000
-45.782         -12.088        8.9000         0.0000
-45.704         -22.331        8.9000         0.0000
-45.647         9.3610         8.9000         0.0000
-45.646         -13.680        8.9000         0.0000
-45.633         2.9126         8.9000         0.0000
-45.612         -36.136        8.9000         0.0000
-45.541         -15.654        8.9000         0.0000
-45.522         -27.192        8.9000         0.0000
-45.510         22.440         8.9000         0.0000
-45.497         7.6659         8.9000         0.0000
-45.464         12.926         8.9000         0.0000
-45.442         29.783         8.9000         0.0000
-45.437         -17.627        8.9000         0.0000
-45.309         33.110         8.9000         0.0000
-45.298         -0.61409       8.9000         0.0000
-45.263         36.372         8.9000         0.0000
-45.216         26.690         8.9000         0.0000
-45.209         -2.6748        8.9000         0.0000
-45.194         6.1001         8.9000         0.0000
-45.120         -4.7354        8.9000         0.0000
-45.117         39.553         8.9000         0.0000
-45.116         -39.554        8.9000         0.0000
-45.075         -30.575        8.9000         0.0000
-45.032         -6.7961        8.9000         0.0000
-44.973         -10.137        8.9000         0.0000
-44.890         4.5342         8.9000         0.0000
-44.846         -20.839        8.9000         0.0000
-44.835         -23.689        8.9000         0.0000
-44.834         -34.220        8.9000         0.0000
-44.819         28.271         8.9000         0.0000
-44.722         10.937         8.9000         0.0000
-44.637         21.056         8.9000         0.0000
-44.596         14.401         8.9000         0.0000
-44.591         -37.308        8.9000         0.0000
-44.555         1.0076         8.9000         0.0000
-44.503         -28.921        8.9000         0.0000
-44.503         15.863         8.9000         0.0000
-44.383         -25.477        8.9000         0.0000
-44.364         17.464         8.9000         0.0000
-44.357         23.779         8.9000         0.0000
-44.319         37.659         8.9000         0.0000
-44.288         -18.763        8.9000         0.0000
-44.226         31.398         8.9000         0.0000
-44.225         19.065         8.9000         0.0000
-44.165         -8.1866        8.9000         0.0000
-44.136         34.693         8.9000         0.0000
-44.106         -11.528        8.9000         0.0000
-44.056         -32.304        8.9000         0.0000
-43.980         8.9484         8.9000         0.0000
-43.970         -13.120        8.9000         0.0000
-43.931         -27.266        8.9000         0.0000
-43.854         12.412         8.9000         0.0000
-43.834         -14.713        8.9000         0.0000
-43.813         -35.392        8.9000         0.0000
-43.812         2.6292         8.9000         0.0000
-43.796         41.011         8.9000         0.0000
-43.795         -41.012        8.9000         0.0000
-43.774         25.212         8.9000         0.0000
-43.730         -16.686        8.9000         0.0000
-43.697         -21.975        8.9000         0.0000
-43.676         7.3825         8.9000         0.0000
-43.602         29.887         8.9000         0.0000
-43.598         -1.6133        8.9000         0.0000
-43.509         -3.6739        8.9000         0.0000
-43.484         -30.649        8.9000         0.0000
-43.484         22.395         8.9000         0.0000
-43.469         -0.063309      8.9000         0.0000
-43.468         -7.2612        8.9000         0.0000
-43.420         -5.7346        8.9000         0.0000
-43.376         26.794         8.9000         0.0000
-43.372         5.8167         8.9000         0.0000
-43.298         -9.5771        8.9000         0.0000
-43.294         -38.788        8.9000         0.0000
-43.245         -23.763        8.9000         0.0000
-43.192         35.980         8.9000         0.0000
-43.139         -19.898        8.9000         0.0000
-43.112         10.423         8.9000         0.0000
-43.072         20.404         8.9000         0.0000
-43.069         4.2509         8.9000         0.0000
-43.035         -33.476        8.9000         0.0000
-43.022         39.139         8.9000         0.0000
-43.009         33.013         8.9000         0.0000
-42.986         13.887         8.9000         0.0000
-42.979         28.376         8.9000         0.0000
-42.913         -28.995        8.9000         0.0000
-42.892         15.349         8.9000         0.0000
-42.799         16.812         8.9000         0.0000
-42.793         -25.551        8.9000         0.0000
-42.792         -36.564        8.9000         0.0000
-42.726         1.5583         8.9000         0.0000
-42.660         18.412         8.9000         0.0000
-42.601         -8.6517        8.9000         0.0000
-42.581         -17.822        8.9000         0.0000
-42.431         -10.968        8.9000         0.0000
-42.427         42.426         8.9000         0.0000
-42.426         -42.427        8.9000         0.0000
-42.386         31.502         8.9000         0.0000
-42.341         -27.340        8.9000         0.0000
-42.331         23.734         8.9000         0.0000
-42.314         9.4971         8.9000         0.0000
-42.295         -12.560        8.9000         0.0000
-42.280         8.0894         8.9000         0.0000
-42.248         37.266         8.9000         0.0000
-42.243         11.898         8.9000         0.0000
-42.203         -31.560        8.9000         0.0000
-42.159         -14.153        8.9000         0.0000
-42.068         -21.135        8.9000         0.0000
-42.065         34.300         8.9000         0.0000
-42.023         -15.745        8.9000         0.0000
-42.014         -34.648        8.9000         0.0000
-41.983         3.1800         8.9000         0.0000
-41.976         6.5235         8.9000         0.0000
-41.948         -40.225        8.9000         0.0000
-41.934         25.316         8.9000         0.0000
-41.919         21.743         8.9000         0.0000
-41.904         -7.7263        8.9000         0.0000
-41.898         -2.6124        8.9000         0.0000
-41.857         -6.1997        8.9000         0.0000
-41.809         -4.6731        8.9000         0.0000
-41.769         -1.0625        8.9000         0.0000
-41.762         29.991         8.9000         0.0000
-41.734         -10.042        8.9000         0.0000
-41.726         -22.653        8.9000         0.0000
-41.677         40.575         8.9000         0.0000
-41.673         4.9577         8.9000         0.0000
-41.640         0.48747        8.9000         0.0000
-41.632         -29.905        8.9000         0.0000
-41.536         26.898         8.9000         0.0000
-41.510         -19.059        8.9000         0.0000
-41.507         19.751         8.9000         0.0000
-41.471         -38.023        8.9000         0.0000
-41.446         10.972         8.9000         0.0000
-41.375         13.372         8.9000         0.0000
-41.282         14.835         8.9000         0.0000
-41.274         -24.441        8.9000         0.0000
-41.189         16.298         8.9000         0.0000
-41.182         -32.732        8.9000         0.0000
-41.139         28.480         8.9000         0.0000
-41.121         35.587         8.9000         0.0000
-41.095         17.760         8.9000         0.0000
-41.060         -28.251        8.9000         0.0000
-41.037         -9.1168        8.9000         0.0000
-41.012         43.795         8.9000         0.0000
-41.011         -43.796        8.9000         0.0000
-41.007         32.622         8.9000         0.0000
-40.993         -35.820        8.9000         0.0000
-40.974         -11.213        8.9000         0.0000
-40.952         -16.982        8.9000         0.0000
-40.927         38.724         8.9000         0.0000
-40.897         2.1091         8.9000         0.0000
-40.878         22.923         8.9000         0.0000
-40.838         -12.806        8.9000         0.0000
-40.822         -26.229        8.9000         0.0000
-40.702         -14.398        8.9000         0.0000
-40.649         10.046         8.9000         0.0000
-40.616         -41.712        8.9000         0.0000
-40.615         8.6381         8.9000         0.0000
-40.587         3.8868         8.9000         0.0000
-40.580         7.2304         8.9000         0.0000
-40.578         12.446         8.9000         0.0000
-40.522         24.294         8.9000         0.0000
-40.466         20.932         8.9000         0.0000
-40.439         -20.296        8.9000         0.0000
-40.383         31.110         8.9000         0.0000
-40.351         -30.816        8.9000         0.0000
-40.340         -8.1914        8.9000         0.0000
-40.293         -6.6648        8.9000         0.0000
-40.278         -10.288        8.9000         0.0000
-40.277         5.6645         8.9000         0.0000
-40.245         -5.1382        8.9000         0.0000
-40.198         -3.6116        8.9000         0.0000
-40.177         36.874         8.9000         0.0000
-40.161         -33.904        8.9000         0.0000
-40.159         41.886         8.9000         0.0000
-40.139         -39.510        8.9000         0.0000
-40.125         25.875         8.9000         0.0000
-40.097         -21.813        8.9000         0.0000
-40.069         -2.0617        8.9000         0.0000
-40.063         33.908         8.9000         0.0000
-40.054         18.940         8.9000         0.0000
-40.014         -15.675        8.9000         0.0000
-39.940         -0.51170       8.9000         0.0000
-39.886         13.614         8.9000         0.0000
-39.880         -18.220        8.9000         0.0000
-39.811         1.0383         8.9000         0.0000
-39.793         15.076         8.9000         0.0000
-39.781         11.520         8.9000         0.0000
-39.779         -29.162        8.9000         0.0000
-39.760         29.599         8.9000         0.0000
-39.755         -23.330        8.9000         0.0000
-39.728         27.457         8.9000         0.0000
-39.699         16.539         8.9000         0.0000
-39.661         -37.308        8.9000         0.0000
-39.581         -9.3626        8.9000         0.0000
-39.554         45.116         8.9000         0.0000
-39.553         -45.117        8.9000         0.0000
-39.541         -27.140        8.9000         0.0000
-39.518         -11.459        8.9000         0.0000
-39.501         2.8160         8.9000         0.0000
-39.464         17.881         8.9000         0.0000
-39.424         22.112         8.9000         0.0000
-39.409         40.035         8.9000         0.0000
-39.382         -13.052        8.9000         0.0000
-39.363         -35.538        8.9000         0.0000
-39.330         -31.988        8.9000         0.0000
-39.303         -25.119        8.9000         0.0000
-39.191         4.5937         8.9000         0.0000
-39.180         -43.057        8.9000         0.0000
-39.119         35.195         8.9000         0.0000
-39.089         12.688         8.9000         0.0000
-39.069         23.482         8.9000         0.0000
-39.012         20.120         8.9000         0.0000
-39.004         32.230         8.9000         0.0000
-38.984         10.594         8.9000         0.0000
-38.950         9.1867         8.9000         0.0000
-38.943         -16.913        8.9000         0.0000
-38.915         7.7791         8.9000         0.0000
-38.881         6.3714         8.9000         0.0000
-38.821         -10.534        8.9000         0.0000
-38.809         -19.457        8.9000         0.0000
-38.807         -40.997        8.9000         0.0000
-38.723         43.231         8.9000         0.0000
-38.714         24.853         8.9000         0.0000
-38.694         -14.329        8.9000         0.0000
-38.659         38.185         8.9000         0.0000
-38.632         -7.7978        8.9000         0.0000
-38.585         -6.2712        8.9000         0.0000
-38.537         -4.7447        8.9000         0.0000
-38.531         -33.622        8.9000         0.0000
-38.498         -30.072        8.9000         0.0000
-38.468         -20.974        8.9000         0.0000
-38.423         19.061         8.9000         0.0000
-38.397         13.855         8.9000         0.0000
-38.391         36.563         8.9000         0.0000
-38.381         30.718         8.9000         0.0000
-38.349         28.577         8.9000         0.0000
-38.329         -38.795        8.9000         0.0000
-38.316         26.435         8.9000         0.0000
-38.303         15.318         8.9000         0.0000
-38.294         -2.9737        8.9000         0.0000
-38.292         11.762         8.9000         0.0000
-38.260         -28.051        8.9000         0.0000
-38.165         -1.4237        8.9000         0.0000
-38.126         -22.491        8.9000         0.0000
-38.068         16.660         8.9000         0.0000
-38.062         -11.705        8.9000         0.0000
-38.060         33.516         8.9000         0.0000
-38.052         46.390         8.9000         0.0000
-38.052         -46.390        8.9000         0.0000
-38.036         0.12623        8.9000         0.0000
-38.031         -37.025        8.9000         0.0000
-38.023         -26.030        8.9000         0.0000
-38.006         -15.606        8.9000         0.0000
-37.971         21.300         8.9000         0.0000
-37.921         1.6562         8.9000         0.0000
-37.891         41.346         8.9000         0.0000
-37.873         -8.9690        8.9000         0.0000
-37.872         -18.150        8.9000         0.0000
-37.833         18.001         8.9000         0.0000
-37.785         -24.008        8.9000         0.0000
-37.732         -35.256        8.9000         0.0000
-37.700         -44.355        8.9000         0.0000
-37.699         -31.706        8.9000         0.0000
-37.616         22.671         8.9000         0.0000
-37.611         3.4339         8.9000         0.0000
-37.604         -19.531        8.9000         0.0000
-37.600         12.929         8.9000         0.0000
-37.381         20.241         8.9000         0.0000
-37.374         -12.982        8.9000         0.0000
-37.349         -42.319        8.9000         0.0000
-37.339         10.194         8.9000         0.0000
-37.332         34.884         8.9000         0.0000
-37.304         8.7865         8.9000         0.0000
-37.301         5.2117         8.9000         0.0000
-37.270         7.3788         8.9000         0.0000
-37.262         -21.048        8.9000         0.0000
-37.260         24.041         8.9000         0.0000
-37.243         44.529         8.9000         0.0000
-37.141         39.495         8.9000         0.0000
-37.113         -10.140        8.9000         0.0000
-37.083         -28.962        8.9000         0.0000
-37.002         31.838         8.9000         0.0000
-36.997         -40.283        8.9000         0.0000
-36.970         29.696         8.9000         0.0000
-36.937         27.554         8.9000         0.0000
-36.935         -16.843        8.9000         0.0000
-36.924         -7.4043        8.9000         0.0000
-36.920         -22.565        8.9000         0.0000
-36.908         14.096         8.9000         0.0000
-36.905         25.412         8.9000         0.0000
-36.901         -33.340        8.9000         0.0000
-36.876         -5.8777        8.9000         0.0000
-36.873         37.874         8.9000         0.0000
-36.845         -26.941        8.9000         0.0000
-36.792         19.181         8.9000         0.0000
-36.699         -38.513        8.9000         0.0000